 Default CPUs for threads: 0,1
 Default is to use a total of   2 processors:
                                2 via shared-memory
                                1 via Linda
 Entering Link 1 = C:\G16W\l1.exe PID=      4112.
  
 Copyright (c) 1988-2017, Gaussian, Inc.  All Rights Reserved.
  
 This is part of the Gaussian(R) 16 program.  It is based on
 the Gaussian(R) 09 system (copyright 2009, Gaussian, Inc.),
 the Gaussian(R) 03 system (copyright 2003, Gaussian, Inc.),
 the Gaussian(R) 98 system (copyright 1998, Gaussian, Inc.),
 the Gaussian(R) 94 system (copyright 1995, Gaussian, Inc.),
 the Gaussian 92(TM) system (copyright 1992, Gaussian, Inc.),
 the Gaussian 90(TM) system (copyright 1990, Gaussian, Inc.),
 the Gaussian 88(TM) system (copyright 1988, Gaussian, Inc.),
 the Gaussian 86(TM) system (copyright 1986, Carnegie Mellon
 University), and the Gaussian 82(TM) system (copyright 1983,
 Carnegie Mellon University). Gaussian is a federally registered
 trademark of Gaussian, Inc.
  
 This software contains proprietary and confidential information,
 including trade secrets, belonging to Gaussian, Inc.
  
 This software is provided under written license and may be
 used, copied, transmitted, or stored only in accord with that
 written license.
  
 The following legend is applicable only to US Government
 contracts under FAR:
  
                    RESTRICTED RIGHTS LEGEND
  
 Use, reproduction and disclosure by the US Government is
 subject to restrictions as set forth in subparagraphs (a)
 and (c) of the Commercial Computer Software - Restricted
 Rights clause in FAR 52.227-19.
  
 Gaussian, Inc.
 340 Quinnipiac St., Bldg. 40, Wallingford CT 06492
  
  
 ---------------------------------------------------------------
 Warning -- This program may not be used in any manner that
 competes with the business of Gaussian, Inc. or will provide
 assistance to any competitor of Gaussian, Inc.  The licensee
 of this program is prohibited from giving any competitor of
 Gaussian, Inc. access to this program.  By using this program,
 the user acknowledges that Gaussian, Inc. is engaged in the
 business of creating and licensing software in the field of
 computational chemistry and represents and warrants to the
 licensee that it is not a competitor of Gaussian, Inc. and that
 it will not use this program in any manner prohibited above.
 ---------------------------------------------------------------
  

 Cite this work as:
 Gaussian 16, Revision B.01,
 M. J. Frisch, G. W. Trucks, H. B. Schlegel, G. E. Scuseria, 
 M. A. Robb, J. R. Cheeseman, G. Scalmani, V. Barone, 
 G. A. Petersson, H. Nakatsuji, X. Li, M. Caricato, A. V. Marenich, 
 J. Bloino, B. G. Janesko, R. Gomperts, B. Mennucci, H. P. Hratchian, 
 J. V. Ortiz, A. F. Izmaylov, J. L. Sonnenberg, D. Williams-Young, 
 F. Ding, F. Lipparini, F. Egidi, J. Goings, B. Peng, A. Petrone, 
 T. Henderson, D. Ranasinghe, V. G. Zakrzewski, J. Gao, N. Rega, 
 G. Zheng, W. Liang, M. Hada, M. Ehara, K. Toyota, R. Fukuda, 
 J. Hasegawa, M. Ishida, T. Nakajima, Y. Honda, O. Kitao, H. Nakai, 
 T. Vreven, K. Throssell, J. A. Montgomery, Jr., J. E. Peralta, 
 F. Ogliaro, M. J. Bearpark, J. J. Heyd, E. N. Brothers, K. N. Kudin, 
 V. N. Staroverov, T. A. Keith, R. Kobayashi, J. Normand, 
 K. Raghavachari, A. P. Rendell, J. C. Burant, S. S. Iyengar, 
 J. Tomasi, M. Cossi, J. M. Millam, M. Klene, C. Adamo, R. Cammi, 
 J. W. Ochterski, R. L. Martin, K. Morokuma, O. Farkas, 
 J. B. Foresman, and D. J. Fox, Gaussian, Inc., Wallingford CT, 2016.
 
 ******************************************
 Gaussian 16:  EM64W-G16RevB.01 16-Dec-2017
                09-Sep-2020 
 ******************************************
 %chk=C:\Users\zz\Desktop\test.chk
 SetSPE:  set environment variable "MP_BIND" = "yes"
 SetSPE:  set environment variable "MP_BLIST" = "0,1"
 Default route: G09Defaults
 --------------------------------------------------
 # Opt=Tight B3LYP/6-31G* EmpiricalDispersion=GD3BJ
 --------------------------------------------------
 1/7=10,14=-1,18=20,19=15,26=3,38=1,158=3,167=1/1,3;
 2/9=110,12=2,17=6,18=5,40=1/2;
 3/5=1,6=6,7=1,11=2,25=1,27=10,30=1,71=1,74=-5,75=-4,124=41,158=3/1,2,3;
 4/60=-1/1;
 5/5=2,38=5,87=10/2;
 6/7=2,8=2,9=2,10=2,28=1,87=10/1;
 7/87=10/1,2,3,16;
 1/7=10,14=-1,18=20,19=15,26=3,158=3,167=1/3(2);
 2/9=110/2;
 99//99;
 2/9=110/2;
 3/5=1,6=6,7=1,11=2,25=1,27=10,30=1,71=1,74=-5,75=-4,124=41,158=3/1,2,3;
 4/5=5,16=3,60=-1,69=1/1;
 5/5=2,38=5,87=10/2;
 7/87=10/1,2,3,16;
 1/7=10,14=-1,18=20,19=15,26=3,158=3,167=1/3(-5);
 2/9=110/2;
 6/7=2,8=2,9=2,10=2,19=2,28=1,87=10/1;
 99/9=1/99;
 Using 2006 physical constants.
 -------------------
 Title Card Required
 -------------------
 Symbolic Z-matrix:
 Charge =  0 Multiplicity = 1
 C                     0.        1.39499   0. 
 C                    -1.2081    0.6975    0. 
 C                    -1.2081   -0.6975    0. 
 C                     0.       -1.39499   0. 
 C                     1.2081   -0.6975    0. 
 C                     1.2081    0.6975    0. 
 H                     0.        2.4946    0. 
 H                    -2.16039   1.2473    0. 
 H                    -2.16039  -1.2473    0. 
 H                     0.       -2.4946    0. 
 H                     2.16039  -1.2473    0. 
 H                     2.16039   1.2473    0. 
 

 GradGradGradGradGradGradGradGradGradGradGradGradGradGradGradGradGradGrad
 Berny optimization.
 Initialization pass.
                           ----------------------------
                           !    Initial Parameters    !
                           ! (Angstroms and Degrees)  !
 --------------------------                            --------------------------
 ! Name  Definition              Value          Derivative Info.                !
 --------------------------------------------------------------------------------
 ! R1    R(1,2)                  1.395          estimate D2E/DX2                !
 ! R2    R(1,6)                  1.395          estimate D2E/DX2                !
 ! R3    R(1,7)                  1.0996         estimate D2E/DX2                !
 ! R4    R(2,3)                  1.395          estimate D2E/DX2                !
 ! R5    R(2,8)                  1.0996         estimate D2E/DX2                !
 ! R6    R(3,4)                  1.395          estimate D2E/DX2                !
 ! R7    R(3,9)                  1.0996         estimate D2E/DX2                !
 ! R8    R(4,5)                  1.395          estimate D2E/DX2                !
 ! R9    R(4,10)                 1.0996         estimate D2E/DX2                !
 ! R10   R(5,6)                  1.395          estimate D2E/DX2                !
 ! R11   R(5,11)                 1.0996         estimate D2E/DX2                !
 ! R12   R(6,12)                 1.0996         estimate D2E/DX2                !
 ! A1    A(2,1,6)              120.0            estimate D2E/DX2                !
 ! A2    A(2,1,7)              120.0            estimate D2E/DX2                !
 ! A3    A(6,1,7)              120.0            estimate D2E/DX2                !
 ! A4    A(1,2,3)              120.0            estimate D2E/DX2                !
 ! A5    A(1,2,8)              120.0            estimate D2E/DX2                !
 ! A6    A(3,2,8)              120.0            estimate D2E/DX2                !
 ! A7    A(2,3,4)              120.0            estimate D2E/DX2                !
 ! A8    A(2,3,9)              120.0            estimate D2E/DX2                !
 ! A9    A(4,3,9)              120.0            estimate D2E/DX2                !
 ! A10   A(3,4,5)              120.0            estimate D2E/DX2                !
 ! A11   A(3,4,10)             120.0            estimate D2E/DX2                !
 ! A12   A(5,4,10)             120.0            estimate D2E/DX2                !
 ! A13   A(4,5,6)              120.0            estimate D2E/DX2                !
 ! A14   A(4,5,11)             120.0            estimate D2E/DX2                !
 ! A15   A(6,5,11)             120.0            estimate D2E/DX2                !
 ! A16   A(1,6,5)              120.0            estimate D2E/DX2                !
 ! A17   A(1,6,12)             120.0            estimate D2E/DX2                !
 ! A18   A(5,6,12)             120.0            estimate D2E/DX2                !
 ! D1    D(6,1,2,3)              0.0            estimate D2E/DX2                !
 ! D2    D(6,1,2,8)            180.0            estimate D2E/DX2                !
 ! D3    D(7,1,2,3)            180.0            estimate D2E/DX2                !
 ! D4    D(7,1,2,8)              0.0            estimate D2E/DX2                !
 ! D5    D(2,1,6,5)              0.0            estimate D2E/DX2                !
 ! D6    D(2,1,6,12)           180.0            estimate D2E/DX2                !
 ! D7    D(7,1,6,5)            180.0            estimate D2E/DX2                !
 ! D8    D(7,1,6,12)             0.0            estimate D2E/DX2                !
 ! D9    D(1,2,3,4)              0.0            estimate D2E/DX2                !
 ! D10   D(1,2,3,9)            180.0            estimate D2E/DX2                !
 ! D11   D(8,2,3,4)            180.0            estimate D2E/DX2                !
 ! D12   D(8,2,3,9)              0.0            estimate D2E/DX2                !
 ! D13   D(2,3,4,5)              0.0            estimate D2E/DX2                !
 ! D14   D(2,3,4,10)           180.0            estimate D2E/DX2                !
 ! D15   D(9,3,4,5)            180.0            estimate D2E/DX2                !
 ! D16   D(9,3,4,10)             0.0            estimate D2E/DX2                !
 ! D17   D(3,4,5,6)              0.0            estimate D2E/DX2                !
 ! D18   D(3,4,5,11)           180.0            estimate D2E/DX2                !
 ! D19   D(10,4,5,6)           180.0            estimate D2E/DX2                !
 ! D20   D(10,4,5,11)            0.0            estimate D2E/DX2                !
 ! D21   D(4,5,6,1)              0.0            estimate D2E/DX2                !
 ! D22   D(4,5,6,12)           180.0            estimate D2E/DX2                !
 ! D23   D(11,5,6,1)           180.0            estimate D2E/DX2                !
 ! D24   D(11,5,6,12)            0.0            estimate D2E/DX2                !
 --------------------------------------------------------------------------------
 Trust Radius=3.00D-01 FncErr=1.00D-07 GrdErr=1.00D-06 EigMax=2.50D+02 EigMin=1.00D-04
 Number of steps in this run=     64 maximum allowed number of steps=    100.
 GradGradGradGradGradGradGradGradGradGradGradGradGradGradGradGradGradGrad

                          Input orientation:                          
 ---------------------------------------------------------------------
 Center     Atomic      Atomic             Coordinates (Angstroms)
 Number     Number       Type             X           Y           Z
 ---------------------------------------------------------------------
      1          6           0        0.000000    1.394991    0.000000
      2          6           0       -1.208097    0.697495    0.000000
      3          6           0       -1.208097   -0.697495    0.000000
      4          6           0        0.000000   -1.394991    0.000000
      5          6           0        1.208097   -0.697495    0.000000
      6          6           0        1.208097    0.697495    0.000000
      7          1           0        0.000000    2.494601    0.000000
      8          1           0       -2.160388    1.247300    0.000000
      9          1           0       -2.160388   -1.247300    0.000000
     10          1           0        0.000000   -2.494601    0.000000
     11          1           0        2.160388   -1.247300    0.000000
     12          1           0        2.160388    1.247300    0.000000
 ---------------------------------------------------------------------
                    Distance matrix (angstroms):
                    1          2          3          4          5
     1  C    0.000000
     2  C    1.394991   0.000000
     3  C    2.416195   1.394991   0.000000
     4  C    2.789981   2.416195   1.394991   0.000000
     5  C    2.416195   2.789981   2.416195   1.394991   0.000000
     6  C    1.394991   2.416195   2.789981   2.416195   1.394991
     7  H    1.099610   2.165430   3.413060   3.889592   3.413060
     8  H    2.165430   1.099610   2.165430   3.413060   3.889592
     9  H    3.413060   2.165430   1.099610   2.165430   3.413060
    10  H    3.889592   3.413060   2.165430   1.099610   2.165430
    11  H    3.413060   3.889592   3.413060   2.165430   1.099610
    12  H    2.165430   3.413060   3.889592   3.413060   2.165430
                    6          7          8          9         10
     6  C    0.000000
     7  H    2.165430   0.000000
     8  H    3.413060   2.494601   0.000000
     9  H    3.889592   4.320776   2.494601   0.000000
    10  H    3.413060   4.989202   4.320776   2.494601   0.000000
    11  H    2.165430   4.320776   4.989202   4.320776   2.494601
    12  H    1.099610   2.494601   4.320776   4.989202   4.320776
                   11         12
    11  H    0.000000
    12  H    2.494601   0.000000
 Stoichiometry    C6H6
 Framework group  D6H[3C2'(HC.CH)]
 Deg. of freedom     2
 Full point group                 D6H     NOp  24
 Largest Abelian subgroup         D2H     NOp   8
 Largest concise Abelian subgroup D2      NOp   4
                         Standard orientation:                         
 ---------------------------------------------------------------------
 Center     Atomic      Atomic             Coordinates (Angstroms)
 Number     Number       Type             X           Y           Z
 ---------------------------------------------------------------------
      1          6           0        0.000000    1.394991    0.000000
      2          6           0        1.208097    0.697495    0.000000
      3          6           0        1.208097   -0.697495    0.000000
      4          6           0        0.000000   -1.394991    0.000000
      5          6           0       -1.208097   -0.697495    0.000000
      6          6           0       -1.208097    0.697495    0.000000
      7          1           0        0.000000    2.494601    0.000000
      8          1           0        2.160388    1.247300    0.000000
      9          1           0        2.160388   -1.247300    0.000000
     10          1           0        0.000000   -2.494601    0.000000
     11          1           0       -2.160388   -1.247300    0.000000
     12          1           0       -2.160388    1.247300    0.000000
 ---------------------------------------------------------------------
 Rotational constants (GHZ):           5.6866486           5.6866486           2.8433243
 Standard basis: 6-31G(d) (6D, 7F)
 There are    23 symmetry adapted cartesian basis functions of AG  symmetry.
 There are    16 symmetry adapted cartesian basis functions of B1G symmetry.
 There are     5 symmetry adapted cartesian basis functions of B2G symmetry.
 There are     7 symmetry adapted cartesian basis functions of B3G symmetry.
 There are     5 symmetry adapted cartesian basis functions of AU  symmetry.
 There are     7 symmetry adapted cartesian basis functions of B1U symmetry.
 There are    23 symmetry adapted cartesian basis functions of B2U symmetry.
 There are    16 symmetry adapted cartesian basis functions of B3U symmetry.
 There are    23 symmetry adapted basis functions of AG  symmetry.
 There are    16 symmetry adapted basis functions of B1G symmetry.
 There are     5 symmetry adapted basis functions of B2G symmetry.
 There are     7 symmetry adapted basis functions of B3G symmetry.
 There are     5 symmetry adapted basis functions of AU  symmetry.
 There are     7 symmetry adapted basis functions of B1U symmetry.
 There are    23 symmetry adapted basis functions of B2U symmetry.
 There are    16 symmetry adapted basis functions of B3U symmetry.
   102 basis functions,   192 primitive gaussians,   102 cartesian basis functions
    21 alpha electrons       21 beta electrons
       nuclear repulsion energy       203.0352978423 Hartrees.
 NAtoms=   12 NActive=   12 NUniq=    2 SFac= 4.00D+00 NAtFMM=   60 NAOKFM=F Big=F
 Integral buffers will be    131072 words long.
 Raffenetti 2 integral format.
 Two-electron integral symmetry is turned on.
 Nuclear repulsion after empirical dispersion term =      203.0164259216 Hartrees.
 One-electron integrals computed using PRISM.
 NBasis=   102 RedAO= T EigKep=  5.19D-04  NBF=    23    16     5     7     5     7    23    16
 NBsUse=   102 1.00D-06 EigRej= -1.00D+00 NBFU=    23    16     5     7     5     7    23    16
 ExpMin= 1.61D-01 ExpMax= 3.05D+03 ExpMxC= 4.57D+02 IAcc=2 IRadAn=         4 AccDes= 0.00D+00
 Harris functional with IExCor=  402 and IRadAn=      -1 diagonalized for initial guess.
 HarFok:  IExCor=  402 AccDes= 0.00D+00 IRadAn=        -1 IDoV= 1 UseB2=F ITyADJ=14
 ICtDFT=  3500011 ScaDFX=  1.000000  1.000000  1.000000  1.000000
 FoFCou: FMM=F IPFlag=           0 FMFlag=      100000 FMFlg1=           0
         NFxFlg=           0 DoJE=T BraDBF=F KetDBF=T FulRan=T
         wScrn=  0.000000 ICntrl=       500 IOpCl=  0 I1Cent=   200000004 NGrid=           0
         NMat0=    1 NMatS0=      1 NMatT0=    0 NMatD0=    1 NMtDS0=    0 NMtDT0=    0
 Petite list used in FoFCou.
 Initial guess orbital symmetries:
       Occupied  (A1G) (E1U) (E1U) (E2G) (E2G) (B1U) (A1G) (E1U)
                 (E1U) (E2G) (E2G) (A1G) (B2U) (B1U) (E1U) (E1U)
                 (A2U) (E2G) (E2G) (E1G) (E1G)
       Virtual   (E2U) (E2U) (A1G) (B2G) (E1U) (E1U) (E2G) (E2G)
                 (B1U) (E2G) (E2G) (E1U) (E1U) (B2U) (B1U) (A2U)
                 (A2G) (A1G) (E2G) (E2G) (E1G) (E1G) (A1G) (E1U)
                 (E1U) (E2U) (E2U) (B2G) (B1U) (E2G) (E2G) (E1U)
                 (E1U) (A1G) (E1U) (E1U) (A2G) (E2G) (E2G) (E1U)
                 (E1U) (B1U) (B1G) (A2U) (E2G) (E2G) (E2U) (E2U)
                 (E1G) (E1G) (A1G) (B2U) (A1G) (B1U) (E1U) (E1U)
                 (E2G) (E2G) (E1U) (E1U) (E2U) (E2U) (E1G) (E1G)
                 (B2G) (E2G) (E2G) (A1U) (E2G) (E2G) (E1U) (E1U)
                 (B1U) (A2G) (B1U) (A1G) (E1U) (E1U) (E2G) (E2G)
                 (B1U)
 The electronic state of the initial guess is 1-A1G.
 Keep R1 ints in memory in symmetry-blocked form, NReq=15690931.
 Requested convergence on RMS density matrix=1.00D-08 within 128 cycles.
 Requested convergence on MAX density matrix=1.00D-06.
 Requested convergence on             energy=1.00D-06.
 No special actions if energy rises.
 Integral accuracy reduced to 1.0D-05 until final iterations.
 Initial convergence to 1.0D-05 achieved.  Increase integral accuracy.
 SCF Done:  E(RB3LYP) =  -232.266924197     A.U. after   11 cycles
            NFock= 11  Conv=0.43D-09     -V/T= 2.0105

 **********************************************************************

            Population analysis using the SCF Density.

 **********************************************************************

 Orbital symmetries:
       Occupied  (A1G) (E1U) (E1U) (E2G) (E2G) (B1U) (A1G) (E1U)
                 (E1U) (E2G) (E2G) (A1G) (B1U) (B2U) (E1U) (E1U)
                 (A2U) (E2G) (E2G) (E1G) (E1G)
       Virtual   (E2U) (E2U) (A1G) (E1U) (E1U) (B2G) (E2G) (E2G)
                 (B1U) (E2G) (E2G) (E1U) (E1U) (B2U) (A2U) (B1U)
                 (A1G) (A2G) (A1G) (E1G) (E1G) (E2G) (E2G) (E1U)
                 (E1U) (E2U) (E2U) (B2G) (E2G) (E2G) (B1U) (E1U)
                 (E1U) (A1G) (E1U) (E1U) (A2G) (E2G) (E2G) (E1U)
                 (E1U) (B1U) (B1G) (A2U) (E2G) (E2G) (E2U) (E2U)
                 (E1G) (E1G) (A1G) (B2U) (A1G) (B1U) (E1U) (E1U)
                 (E2G) (E2G) (E2U) (E2U) (E1U) (E1U) (E1G) (E1G)
                 (B2G) (E2G) (E2G) (A1U) (E2G) (E2G) (E1U) (E1U)
                 (B1U) (A2G) (B1U) (A1G) (E1U) (E1U) (E2G) (E2G)
                 (B1U)
 The electronic state is 1-A1G.
 Alpha  occ. eigenvalues --  -10.18915 -10.18888 -10.18888 -10.18832 -10.18832
 Alpha  occ. eigenvalues --  -10.18805  -0.84735  -0.73964  -0.73964  -0.59619
 Alpha  occ. eigenvalues --   -0.59619  -0.51676  -0.45547  -0.43910  -0.41601
 Alpha  occ. eigenvalues --   -0.41601  -0.36044  -0.33934  -0.33934  -0.24694
 Alpha  occ. eigenvalues --   -0.24694
 Alpha virt. eigenvalues --    0.00369   0.00369   0.08622   0.14104   0.14104
 Alpha virt. eigenvalues --    0.16462   0.17979   0.17979   0.18668   0.30212
 Alpha virt. eigenvalues --    0.30212   0.32020   0.32020   0.47413   0.52659
 Alpha virt. eigenvalues --    0.54914   0.55107   0.56545   0.59314   0.60129
 Alpha virt. eigenvalues --    0.60129   0.60194   0.60194   0.62585   0.62585
 Alpha virt. eigenvalues --    0.66710   0.66710   0.74449   0.83121   0.83121
 Alpha virt. eigenvalues --    0.83651   0.85651   0.85651   0.93202   0.93978
 Alpha virt. eigenvalues --    0.93978   0.95804   1.08480   1.08480   1.14335
 Alpha virt. eigenvalues --    1.14335   1.20036   1.26129   1.39622   1.43086
 Alpha virt. eigenvalues --    1.43086   1.48734   1.48734   1.51620   1.51620
 Alpha virt. eigenvalues --    1.75301   1.79148   1.84551   1.88960   1.95947
 Alpha virt. eigenvalues --    1.95947   2.06719   2.06719   2.15318   2.15318
 Alpha virt. eigenvalues --    2.15615   2.15615   2.31070   2.31070   2.32447
 Alpha virt. eigenvalues --    2.54138   2.54138   2.65975   2.70187   2.70187
 Alpha virt. eigenvalues --    2.72427   2.72427   2.75517   3.01965   3.40543
 Alpha virt. eigenvalues --    4.08376   4.11533   4.11533   4.32797   4.32797
 Alpha virt. eigenvalues --    4.66421
          Condensed to atoms (all electrons):
               1          2          3          4          5          6
     1  C    4.848486   0.552475  -0.032900  -0.040755  -0.032900   0.552475
     2  C    0.552475   4.848486   0.552475  -0.032900  -0.040755  -0.032900
     3  C   -0.032900   0.552475   4.848486   0.552475  -0.032900  -0.040755
     4  C   -0.040755  -0.032900   0.552475   4.848486   0.552475  -0.032900
     5  C   -0.032900  -0.040755  -0.032900   0.552475   4.848486   0.552475
     6  C    0.552475  -0.032900  -0.040755  -0.032900   0.552475   4.848486
     7  H    0.357422  -0.042772   0.004654   0.000570   0.004654  -0.042772
     8  H   -0.042772   0.357422  -0.042772   0.004654   0.000570   0.004654
     9  H    0.004654  -0.042772   0.357422  -0.042772   0.004654   0.000570
    10  H    0.000570   0.004654  -0.042772   0.357422  -0.042772   0.004654
    11  H    0.004654   0.000570   0.004654  -0.042772   0.357422  -0.042772
    12  H   -0.042772   0.004654   0.000570   0.004654  -0.042772   0.357422
               7          8          9         10         11         12
     1  C    0.357422  -0.042772   0.004654   0.000570   0.004654  -0.042772
     2  C   -0.042772   0.357422  -0.042772   0.004654   0.000570   0.004654
     3  C    0.004654  -0.042772   0.357422  -0.042772   0.004654   0.000570
     4  C    0.000570   0.004654  -0.042772   0.357422  -0.042772   0.004654
     5  C    0.004654   0.000570   0.004654  -0.042772   0.357422  -0.042772
     6  C   -0.042772   0.004654   0.000570   0.004654  -0.042772   0.357422
     7  H    0.601431  -0.005745  -0.000174   0.000015  -0.000174  -0.005745
     8  H   -0.005745   0.601431  -0.005745  -0.000174   0.000015  -0.000174
     9  H   -0.000174  -0.005745   0.601431  -0.005745  -0.000174   0.000015
    10  H    0.000015  -0.000174  -0.005745   0.601431  -0.005745  -0.000174
    11  H   -0.000174   0.000015  -0.000174  -0.005745   0.601431  -0.005745
    12  H   -0.005745  -0.000174   0.000015  -0.000174  -0.005745   0.601431
 Mulliken charges:
               1
     1  C   -0.128637
     2  C   -0.128637
     3  C   -0.128637
     4  C   -0.128637
     5  C   -0.128637
     6  C   -0.128637
     7  H    0.128637
     8  H    0.128637
     9  H    0.128637
    10  H    0.128637
    11  H    0.128637
    12  H    0.128637
 Sum of Mulliken charges =   0.00000
 Mulliken charges with hydrogens summed into heavy atoms:
               1
     1  C    0.000000
     2  C    0.000000
     3  C    0.000000
     4  C    0.000000
     5  C    0.000000
     6  C    0.000000
 Electronic spatial extent (au):  <R**2>=            459.0386
 Charge=              0.0000 electrons
 Dipole moment (field-independent basis, Debye):
    X=              0.0000    Y=              0.0000    Z=              0.0000  Tot=              0.0000
 Quadrupole moment (field-independent basis, Debye-Ang):
   XX=            -31.4638   YY=            -31.4638   ZZ=            -38.6590
   XY=              0.0000   XZ=              0.0000   YZ=              0.0000
 Traceless Quadrupole moment (field-independent basis, Debye-Ang):
   XX=              2.3984   YY=              2.3984   ZZ=             -4.7968
   XY=              0.0000   XZ=              0.0000   YZ=              0.0000
 Octapole moment (field-independent basis, Debye-Ang**2):
  XXX=              0.0000  YYY=              0.0000  ZZZ=              0.0000  XYY=              0.0000
  XXY=              0.0000  XXZ=              0.0000  XZZ=              0.0000  YZZ=              0.0000
  YYZ=              0.0000  XYZ=              0.0000
 Hexadecapole moment (field-independent basis, Debye-Ang**3):
 XXXX=           -271.0959 YYYY=           -271.0959 ZZZZ=            -40.1134 XXXY=              0.0000
 XXXZ=              0.0000 YYYX=              0.0000 YYYZ=              0.0000 ZZZX=              0.0000
 ZZZY=              0.0000 XXYY=            -90.3653 XXZZ=            -60.6682 YYZZ=            -60.6682
 XXYZ=              0.0000 YYXZ=              0.0000 ZZXY=              0.0000
 N-N= 2.030164259216D+02 E-N=-9.433420732812D+02  KE= 2.298482594210D+02
 Symmetry AG   KE= 7.404141045798D+01
 Symmetry B1G  KE= 3.745780603411D+01
 Symmetry B2G  KE= 2.239643661232D+00
 Symmetry B3G  KE= 2.239643661232D+00
 Symmetry AU   KE= 1.458370003269D-16
 Symmetry B1U  KE= 1.867471135324D+00
 Symmetry B2U  KE= 7.173563779235D+01
 Symmetry B3U  KE= 4.026664667879D+01
 Calling FoFJK, ICntrl=      2127 FMM=F ISym2X=1 I1Cent= 0 IOpClX= 0 NMat=1 NMatS=1 NMatT=0.
 ***** Axes restored to original set *****
 -------------------------------------------------------------------
 Center     Atomic                   Forces (Hartrees/Bohr)
 Number     Number              X              Y              Z
 -------------------------------------------------------------------
      1        6           0.000000000    0.009285475    0.000000000
      2        6          -0.008041457    0.004642738    0.000000000
      3        6          -0.008041457   -0.004642737    0.000000000
      4        6           0.000000000   -0.009285475    0.000000000
      5        6           0.008041457   -0.004642738    0.000000000
      6        6           0.008041457    0.004642737    0.000000000
      7        1           0.000000000   -0.008524641    0.000000000
      8        1           0.007382556   -0.004262321    0.000000000
      9        1           0.007382556    0.004262321    0.000000000
     10        1           0.000000000    0.008524641    0.000000000
     11        1          -0.007382556    0.004262321    0.000000000
     12        1          -0.007382556   -0.004262321    0.000000000
 -------------------------------------------------------------------
 Cartesian Forces:  Max     0.009285475 RMS     0.005146027

 GradGradGradGradGradGradGradGradGradGradGradGradGradGradGradGradGradGrad
 Berny optimization.
 FormGI is forming the generalized inverse of G from B-inverse, IUseBI=4.
 Internal  Forces:  Max     0.008524641 RMS     0.002852842
 Search for a local minimum.
 Step number   1 out of a maximum of   64
 All quantities printed in internal units (Hartrees-Bohrs-Radians)
 Mixed Optimization -- RFO/linear search
 Second derivative matrix not updated -- first step.
 ITU=  0
     Eigenvalues ---    0.02155   0.02155   0.02155   0.02155   0.02155
     Eigenvalues ---    0.02155   0.02155   0.02155   0.02155   0.16000
     Eigenvalues ---    0.16000   0.16000   0.16000   0.16000   0.16000
     Eigenvalues ---    0.22000   0.22000   0.22000   0.33725   0.33725
     Eigenvalues ---    0.33725   0.33725   0.33725   0.33725   0.42118
     Eigenvalues ---    0.42118   0.46461   0.46461   0.46461   0.46461
 RFO step:  Lambda=-1.29535868D-03 EMin= 2.15501956D-02
 Linear search not attempted -- first point.
 Iteration  1 RMS(Cart)=  0.00786785 RMS(Int)=  0.00000000
 Iteration  2 RMS(Cart)=  0.00000000 RMS(Int)=  0.00000000
 ClnCor:  largest displacement from symmetrization is 3.07D-13 for atom    11.
 Variable       Old X    -DE/DX   Delta X   Delta X   Delta X     New X
                                 (Linear)    (Quad)   (Total)
    R1        2.63615   0.00076   0.00000   0.00163   0.00163   2.63778
    R2        2.63615   0.00076   0.00000   0.00163   0.00163   2.63778
    R3        2.07796  -0.00852   0.00000  -0.02518  -0.02518   2.05278
    R4        2.63615   0.00076   0.00000   0.00163   0.00163   2.63778
    R5        2.07796  -0.00852   0.00000  -0.02518  -0.02518   2.05278
    R6        2.63615   0.00076   0.00000   0.00163   0.00163   2.63778
    R7        2.07796  -0.00852   0.00000  -0.02518  -0.02518   2.05278
    R8        2.63615   0.00076   0.00000   0.00163   0.00163   2.63778
    R9        2.07796  -0.00852   0.00000  -0.02518  -0.02518   2.05278
   R10        2.63615   0.00076   0.00000   0.00163   0.00163   2.63778
   R11        2.07796  -0.00852   0.00000  -0.02518  -0.02518   2.05278
   R12        2.07796  -0.00852   0.00000  -0.02518  -0.02518   2.05278
    A1        2.09440   0.00000   0.00000   0.00000   0.00000   2.09440
    A2        2.09440   0.00000   0.00000   0.00000   0.00000   2.09440
    A3        2.09440   0.00000   0.00000   0.00000   0.00000   2.09440
    A4        2.09440   0.00000   0.00000   0.00000   0.00000   2.09440
    A5        2.09440   0.00000   0.00000   0.00000   0.00000   2.09440
    A6        2.09440   0.00000   0.00000   0.00000   0.00000   2.09440
    A7        2.09440   0.00000   0.00000   0.00000   0.00000   2.09440
    A8        2.09440   0.00000   0.00000   0.00000   0.00000   2.09440
    A9        2.09440   0.00000   0.00000   0.00000   0.00000   2.09440
   A10        2.09440   0.00000   0.00000   0.00000   0.00000   2.09440
   A11        2.09440   0.00000   0.00000   0.00000   0.00000   2.09440
   A12        2.09440   0.00000   0.00000   0.00000   0.00000   2.09440
   A13        2.09440   0.00000   0.00000   0.00000   0.00000   2.09440
   A14        2.09440   0.00000   0.00000   0.00000   0.00000   2.09440
   A15        2.09440   0.00000   0.00000   0.00000   0.00000   2.09440
   A16        2.09440   0.00000   0.00000   0.00000   0.00000   2.09440
   A17        2.09440   0.00000   0.00000   0.00000   0.00000   2.09440
   A18        2.09440   0.00000   0.00000   0.00000   0.00000   2.09440
    D1        0.00000   0.00000   0.00000   0.00000   0.00000   0.00000
    D2        3.14159   0.00000   0.00000   0.00000   0.00000   3.14159
    D3        3.14159   0.00000   0.00000   0.00000   0.00000   3.14159
    D4        0.00000   0.00000   0.00000   0.00000   0.00000   0.00000
    D5        0.00000   0.00000   0.00000   0.00000   0.00000   0.00000
    D6        3.14159   0.00000   0.00000   0.00000   0.00000   3.14159
    D7        3.14159   0.00000   0.00000   0.00000   0.00000   3.14159
    D8        0.00000   0.00000   0.00000   0.00000   0.00000   0.00000
    D9        0.00000   0.00000   0.00000   0.00000   0.00000   0.00000
   D10        3.14159   0.00000   0.00000   0.00000   0.00000   3.14159
   D11        3.14159   0.00000   0.00000   0.00000   0.00000   3.14159
   D12        0.00000   0.00000   0.00000   0.00000   0.00000   0.00000
   D13        0.00000   0.00000   0.00000   0.00000   0.00000   0.00000
   D14        3.14159   0.00000   0.00000   0.00000   0.00000   3.14159
   D15        3.14159   0.00000   0.00000   0.00000   0.00000   3.14159
   D16        0.00000   0.00000   0.00000   0.00000   0.00000   0.00000
   D17        0.00000   0.00000   0.00000   0.00000   0.00000   0.00000
   D18        3.14159   0.00000   0.00000   0.00000   0.00000   3.14159
   D19        3.14159   0.00000   0.00000   0.00000   0.00000   3.14159
   D20        0.00000   0.00000   0.00000   0.00000   0.00000   0.00000
   D21        0.00000   0.00000   0.00000   0.00000   0.00000   0.00000
   D22        3.14159   0.00000   0.00000   0.00000   0.00000   3.14159
   D23        3.14159   0.00000   0.00000   0.00000   0.00000   3.14159
   D24        0.00000   0.00000   0.00000   0.00000   0.00000   0.00000
         Item               Value     Threshold  Converged?
 Maximum Force            0.008525     0.000015     NO 
 RMS     Force            0.002853     0.000010     NO 
 Maximum Displacement     0.023547     0.000060     NO 
 RMS     Displacement     0.007868     0.000040     NO 
 Predicted change in Energy=-6.501536D-04
 GradGradGradGradGradGradGradGradGradGradGradGradGradGradGradGradGradGrad

                          Input orientation:                          
 ---------------------------------------------------------------------
 Center     Atomic      Atomic             Coordinates (Angstroms)
 Number     Number       Type             X           Y           Z
 ---------------------------------------------------------------------
      1          6           0        0.000000    1.395855    0.000000
      2          6           0       -1.208846    0.697927    0.000000
      3          6           0       -1.208846   -0.697927    0.000000
      4          6           0        0.000000   -1.395855    0.000000
      5          6           0        1.208846   -0.697927    0.000000
      6          6           0        1.208846    0.697927    0.000000
      7          1           0        0.000000    2.482140    0.000000
      8          1           0       -2.149597    1.241070    0.000000
      9          1           0       -2.149597   -1.241070    0.000000
     10          1           0        0.000000   -2.482140    0.000000
     11          1           0        2.149597   -1.241070    0.000000
     12          1           0        2.149597    1.241070    0.000000
 ---------------------------------------------------------------------
                    Distance matrix (angstroms):
                    1          2          3          4          5
     1  C    0.000000
     2  C    1.395855   0.000000
     3  C    2.417691   1.395855   0.000000
     4  C    2.791710   2.417691   1.395855   0.000000
     5  C    2.417691   2.791710   2.417691   1.395855   0.000000
     6  C    1.395855   2.417691   2.791710   2.417691   1.395855
     7  H    1.086286   2.155162   3.402079   3.877995   3.402079
     8  H    2.155162   1.086286   2.155162   3.402079   3.877995
     9  H    3.402079   2.155162   1.086286   2.155162   3.402079
    10  H    3.877995   3.402079   2.155162   1.086286   2.155162
    11  H    3.402079   3.877995   3.402079   2.155162   1.086286
    12  H    2.155162   3.402079   3.877995   3.402079   2.155162
                    6          7          8          9         10
     6  C    0.000000
     7  H    2.155162   0.000000
     8  H    3.402079   2.482140   0.000000
     9  H    3.877995   4.299193   2.482140   0.000000
    10  H    3.402079   4.964281   4.299193   2.482140   0.000000
    11  H    2.155162   4.299193   4.964281   4.299193   2.482140
    12  H    1.086286   2.482140   4.299193   4.964281   4.299193
                   11         12
    11  H    0.000000
    12  H    2.482140   0.000000
 Stoichiometry    C6H6
 Framework group  D6H[3C2'(HC.CH)]
 Deg. of freedom     2
 Full point group                 D6H     NOp  24
 Largest Abelian subgroup         D2H     NOp   8
 Largest concise Abelian subgroup D2      NOp   4
                         Standard orientation:                         
 ---------------------------------------------------------------------
 Center     Atomic      Atomic             Coordinates (Angstroms)
 Number     Number       Type             X           Y           Z
 ---------------------------------------------------------------------
      1          6           0        0.000000    1.395855    0.000000
      2          6           0        1.208846    0.697927    0.000000
      3          6           0        1.208846   -0.697927    0.000000
      4          6           0        0.000000   -1.395855    0.000000
      5          6           0       -1.208846   -0.697927    0.000000
      6          6           0       -1.208846    0.697927    0.000000
      7          1           0        0.000000    2.482140    0.000000
      8          1           0        2.149597    1.241070    0.000000
      9          1           0        2.149597   -1.241070    0.000000
     10          1           0        0.000000   -2.482140    0.000000
     11          1           0       -2.149597   -1.241070    0.000000
     12          1           0       -2.149597    1.241070    0.000000
 ---------------------------------------------------------------------
 Rotational constants (GHZ):           5.6930976           5.6930976           2.8465488
 Standard basis: 6-31G(d) (6D, 7F)
 There are    23 symmetry adapted cartesian basis functions of AG  symmetry.
 There are    16 symmetry adapted cartesian basis functions of B1G symmetry.
 There are     5 symmetry adapted cartesian basis functions of B2G symmetry.
 There are     7 symmetry adapted cartesian basis functions of B3G symmetry.
 There are     5 symmetry adapted cartesian basis functions of AU  symmetry.
 There are     7 symmetry adapted cartesian basis functions of B1U symmetry.
 There are    23 symmetry adapted cartesian basis functions of B2U symmetry.
 There are    16 symmetry adapted cartesian basis functions of B3U symmetry.
 There are    23 symmetry adapted basis functions of AG  symmetry.
 There are    16 symmetry adapted basis functions of B1G symmetry.
 There are     5 symmetry adapted basis functions of B2G symmetry.
 There are     7 symmetry adapted basis functions of B3G symmetry.
 There are     5 symmetry adapted basis functions of AU  symmetry.
 There are     7 symmetry adapted basis functions of B1U symmetry.
 There are    23 symmetry adapted basis functions of B2U symmetry.
 There are    16 symmetry adapted basis functions of B3U symmetry.
   102 basis functions,   192 primitive gaussians,   102 cartesian basis functions
    21 alpha electrons       21 beta electrons
       nuclear repulsion energy       203.3012947191 Hartrees.
 NAtoms=   12 NActive=   12 NUniq=    2 SFac= 4.00D+00 NAtFMM=   60 NAOKFM=F Big=F
 Integral buffers will be    131072 words long.
 Raffenetti 2 integral format.
 Two-electron integral symmetry is turned on.
 Nuclear repulsion after empirical dispersion term =      203.2823873065 Hartrees.
 One-electron integrals computed using PRISM.
 NBasis=   102 RedAO= T EigKep=  5.18D-04  NBF=    23    16     5     7     5     7    23    16
 NBsUse=   102 1.00D-06 EigRej= -1.00D+00 NBFU=    23    16     5     7     5     7    23    16
 Initial guess from the checkpoint file:  "C:\Users\zz\Desktop\test.chk"
 B after Tr=     0.000000    0.000000    0.000000
         Rot=    1.000000    0.000000    0.000000    0.000000 Ang=   0.00 deg.
 Initial guess orbital symmetries:
       Occupied  (A1G) (E1U) (E1U) (E2G) (E2G) (B1U) (A1G) (E1U)
                 (E1U) (E2G) (E2G) (A1G) (B1U) (B2U) (E1U) (E1U)
                 (A2U) (E2G) (E2G) (E1G) (E1G)
       Virtual   (E2U) (E2U) (A1G) (E1U) (E1U) (B2G) (E2G) (E2G)
                 (B1U) (E2G) (E2G) (E1U) (E1U) (B2U) (A2U) (B1U)
                 (A1G) (A2G) (A1G) (E1G) (E1G) (E2G) (E2G) (E1U)
                 (E1U) (E2U) (E2U) (B2G) (E2G) (E2G) (B1U) (E1U)
                 (E1U) (A1G) (E1U) (E1U) (A2G) (E2G) (E2G) (E1U)
                 (E1U) (B1U) (B1G) (A2U) (E2G) (E2G) (E2U) (E2U)
                 (E1G) (E1G) (A1G) (B2U) (A1G) (B1U) (E1U) (E1U)
                 (E2G) (E2G) (E2U) (E2U) (E1U) (E1U) (E1G) (E1G)
                 (B2G) (E2G) (E2G) (A1U) (E2G) (E2G) (E1U) (E1U)
                 (B1U) (A2G) (B1U) (A1G) (E1U) (E1U) (E2G) (E2G)
                 (B1U)
 ExpMin= 1.61D-01 ExpMax= 3.05D+03 ExpMxC= 4.57D+02 IAcc=2 IRadAn=         4 AccDes= 0.00D+00
 Harris functional with IExCor=  402 and IRadAn=      -1 diagonalized for initial guess.
 HarFok:  IExCor=  402 AccDes= 0.00D+00 IRadAn=        -1 IDoV= 1 UseB2=F ITyADJ=14
 ICtDFT=  3500011 ScaDFX=  1.000000  1.000000  1.000000  1.000000
 FoFCou: FMM=F IPFlag=           0 FMFlag=      100000 FMFlg1=           0
         NFxFlg=           0 DoJE=T BraDBF=F KetDBF=T FulRan=T
         wScrn=  0.000000 ICntrl=       500 IOpCl=  0 I1Cent=   200000004 NGrid=           0
         NMat0=    1 NMatS0=      1 NMatT0=    0 NMatD0=    1 NMtDS0=    0 NMtDT0=    0
 Petite list used in FoFCou.
 Keep R1 ints in memory in symmetry-blocked form, NReq=15690931.
 Requested convergence on RMS density matrix=1.00D-08 within 128 cycles.
 Requested convergence on MAX density matrix=1.00D-06.
 Requested convergence on             energy=1.00D-06.
 No special actions if energy rises.
 Integral accuracy reduced to 1.0D-05 until final iterations.
 Initial convergence to 1.0D-05 achieved.  Increase integral accuracy.
 SCF Done:  E(RB3LYP) =  -232.267563173     A.U. after    9 cycles
            NFock=  9  Conv=0.52D-08     -V/T= 2.0101
 Calling FoFJK, ICntrl=      2127 FMM=F ISym2X=1 I1Cent= 0 IOpClX= 0 NMat=1 NMatS=1 NMatT=0.
 ***** Axes restored to original set *****
 -------------------------------------------------------------------
 Center     Atomic                   Forces (Hartrees/Bohr)
 Number     Number              X              Y              Z
 -------------------------------------------------------------------
      1        6           0.000000000   -0.000049698    0.000000000
      2        6           0.000043040   -0.000024849    0.000000000
      3        6           0.000043040    0.000024849    0.000000000
      4        6           0.000000000    0.000049698    0.000000000
      5        6          -0.000043040    0.000024849    0.000000000
      6        6          -0.000043040   -0.000024849    0.000000000
      7        1           0.000000000    0.000241232    0.000000000
      8        1          -0.000208913    0.000120616    0.000000000
      9        1          -0.000208913   -0.000120616    0.000000000
     10        1           0.000000000   -0.000241232    0.000000000
     11        1           0.000208913   -0.000120616    0.000000000
     12        1           0.000208913    0.000120616    0.000000000
 -------------------------------------------------------------------
 Cartesian Forces:  Max     0.000241232 RMS     0.000100551

 GradGradGradGradGradGradGradGradGradGradGradGradGradGradGradGradGradGrad
 Berny optimization.
 Using GEDIIS/GDIIS optimizer.
 FormGI is forming the generalized inverse of G from B-inverse, IUseBI=4.
 Internal  Forces:  Max     0.000241232 RMS     0.000102674
 Search for a local minimum.
 Step number   2 out of a maximum of   64
 All quantities printed in internal units (Hartrees-Bohrs-Radians)
 Mixed Optimization -- En-DIIS/RFO-DIIS
 Update second derivatives using D2CorX and points    1    2
 DE= -6.39D-04 DEPred=-6.50D-04 R= 9.83D-01
 TightC=F SS=  1.41D+00  RLast= 6.18D-02 DXNew= 5.0454D-01 1.8542D-01
 Trust test= 9.83D-01 RLast= 6.18D-02 DXMaxT set to 3.00D-01
 ITU=  1  0
 Use linear search instead of GDIIS.
     Eigenvalues ---    0.02155   0.02155   0.02155   0.02155   0.02155
     Eigenvalues ---    0.02155   0.02155   0.02155   0.02155   0.16000
     Eigenvalues ---    0.16000   0.16000   0.16000   0.16000   0.16000
     Eigenvalues ---    0.22000   0.22000   0.22000   0.33725   0.33725
     Eigenvalues ---    0.33725   0.33725   0.33725   0.34813   0.42123
     Eigenvalues ---    0.42123   0.46388   0.46461   0.46461   0.46461
 RFO step:  Lambda=-5.52966943D-07 EMin= 2.15501956D-02
 Quartic linear search produced a step of -0.02504.
 Iteration  1 RMS(Cart)=  0.00037916 RMS(Int)=  0.00000000
 Iteration  2 RMS(Cart)=  0.00000000 RMS(Int)=  0.00000000
 ClnCor:  largest displacement from symmetrization is 1.91D-13 for atom     5.
 Variable       Old X    -DE/DX   Delta X   Delta X   Delta X     New X
                                 (Linear)    (Quad)   (Total)
    R1        2.63778   0.00019  -0.00004   0.00044   0.00040   2.63819
    R2        2.63778   0.00019  -0.00004   0.00044   0.00040   2.63819
    R3        2.05278   0.00024   0.00063   0.00003   0.00066   2.05344
    R4        2.63778   0.00019  -0.00004   0.00044   0.00040   2.63819
    R5        2.05278   0.00024   0.00063   0.00003   0.00066   2.05344
    R6        2.63778   0.00019  -0.00004   0.00044   0.00040   2.63819
    R7        2.05278   0.00024   0.00063   0.00003   0.00066   2.05344
    R8        2.63778   0.00019  -0.00004   0.00044   0.00040   2.63819
    R9        2.05278   0.00024   0.00063   0.00003   0.00066   2.05344
   R10        2.63778   0.00019  -0.00004   0.00044   0.00040   2.63819
   R11        2.05278   0.00024   0.00063   0.00003   0.00066   2.05344
   R12        2.05278   0.00024   0.00063   0.00003   0.00066   2.05344
    A1        2.09440   0.00000   0.00000   0.00000   0.00000   2.09440
    A2        2.09440   0.00000   0.00000   0.00000   0.00000   2.09440
    A3        2.09440   0.00000   0.00000   0.00000   0.00000   2.09440
    A4        2.09440   0.00000   0.00000   0.00000   0.00000   2.09440
    A5        2.09440   0.00000   0.00000   0.00000   0.00000   2.09440
    A6        2.09440   0.00000   0.00000   0.00000   0.00000   2.09440
    A7        2.09440   0.00000   0.00000   0.00000   0.00000   2.09440
    A8        2.09440   0.00000   0.00000   0.00000   0.00000   2.09440
    A9        2.09440   0.00000   0.00000   0.00000   0.00000   2.09440
   A10        2.09440   0.00000   0.00000   0.00000   0.00000   2.09440
   A11        2.09440   0.00000   0.00000   0.00000   0.00000   2.09440
   A12        2.09440   0.00000   0.00000   0.00000   0.00000   2.09440
   A13        2.09440   0.00000   0.00000   0.00000   0.00000   2.09440
   A14        2.09440   0.00000   0.00000   0.00000   0.00000   2.09440
   A15        2.09440   0.00000   0.00000   0.00000   0.00000   2.09440
   A16        2.09440   0.00000   0.00000   0.00000   0.00000   2.09440
   A17        2.09440   0.00000   0.00000   0.00000   0.00000   2.09440
   A18        2.09440   0.00000   0.00000   0.00000   0.00000   2.09440
    D1        0.00000   0.00000   0.00000   0.00000   0.00000   0.00000
    D2        3.14159   0.00000   0.00000   0.00000   0.00000   3.14159
    D3        3.14159   0.00000   0.00000   0.00000   0.00000   3.14159
    D4        0.00000   0.00000   0.00000   0.00000   0.00000   0.00000
    D5        0.00000   0.00000   0.00000   0.00000   0.00000   0.00000
    D6        3.14159   0.00000   0.00000   0.00000   0.00000   3.14159
    D7        3.14159   0.00000   0.00000   0.00000   0.00000   3.14159
    D8        0.00000   0.00000   0.00000   0.00000   0.00000   0.00000
    D9        0.00000   0.00000   0.00000   0.00000   0.00000   0.00000
   D10        3.14159   0.00000   0.00000   0.00000   0.00000   3.14159
   D11        3.14159   0.00000   0.00000   0.00000   0.00000   3.14159
   D12        0.00000   0.00000   0.00000   0.00000   0.00000   0.00000
   D13        0.00000   0.00000   0.00000   0.00000   0.00000   0.00000
   D14        3.14159   0.00000   0.00000   0.00000   0.00000   3.14159
   D15        3.14159   0.00000   0.00000   0.00000   0.00000   3.14159
   D16        0.00000   0.00000   0.00000   0.00000   0.00000   0.00000
   D17        0.00000   0.00000   0.00000   0.00000   0.00000   0.00000
   D18        3.14159   0.00000   0.00000   0.00000   0.00000   3.14159
   D19        3.14159   0.00000   0.00000   0.00000   0.00000   3.14159
   D20        0.00000   0.00000   0.00000   0.00000   0.00000   0.00000
   D21        0.00000   0.00000   0.00000   0.00000   0.00000   0.00000
   D22        3.14159   0.00000   0.00000   0.00000   0.00000   3.14159
   D23        3.14159   0.00000   0.00000   0.00000   0.00000   3.14159
   D24        0.00000   0.00000   0.00000   0.00000   0.00000   0.00000
         Item               Value     Threshold  Converged?
 Maximum Force            0.000241     0.000015     NO 
 RMS     Force            0.000103     0.000010     NO 
 Maximum Displacement     0.001063     0.000060     NO 
 RMS     Displacement     0.000379     0.000040     NO 
 Predicted change in Energy=-7.251530D-07
 GradGradGradGradGradGradGradGradGradGradGradGradGradGradGradGradGradGrad

                          Input orientation:                          
 ---------------------------------------------------------------------
 Center     Atomic      Atomic             Coordinates (Angstroms)
 Number     Number       Type             X           Y           Z
 ---------------------------------------------------------------------
      1          6           0        0.000000    1.396069    0.000000
      2          6           0       -1.209031    0.698034    0.000000
      3          6           0       -1.209031   -0.698034    0.000000
      4          6           0        0.000000   -1.396069    0.000000
      5          6           0        1.209031   -0.698034    0.000000
      6          6           0        1.209031    0.698034    0.000000
      7          1           0        0.000000    2.482703    0.000000
      8          1           0       -2.150084    1.241352    0.000000
      9          1           0       -2.150084   -1.241352    0.000000
     10          1           0        0.000000   -2.482703    0.000000
     11          1           0        2.150084   -1.241352    0.000000
     12          1           0        2.150084    1.241352    0.000000
 ---------------------------------------------------------------------
                    Distance matrix (angstroms):
                    1          2          3          4          5
     1  C    0.000000
     2  C    1.396069   0.000000
     3  C    2.418062   1.396069   0.000000
     4  C    2.792137   2.418062   1.396069   0.000000
     5  C    2.418062   2.792137   2.418062   1.396069   0.000000
     6  C    1.396069   2.418062   2.792137   2.418062   1.396069
     7  H    1.086635   2.155643   3.402770   3.878772   3.402770
     8  H    2.155643   1.086635   2.155643   3.402770   3.878772
     9  H    3.402770   2.155643   1.086635   2.155643   3.402770
    10  H    3.878772   3.402770   2.155643   1.086635   2.155643
    11  H    3.402770   3.878772   3.402770   2.155643   1.086635
    12  H    2.155643   3.402770   3.878772   3.402770   2.155643
                    6          7          8          9         10
     6  C    0.000000
     7  H    2.155643   0.000000
     8  H    3.402770   2.482703   0.000000
     9  H    3.878772   4.300168   2.482703   0.000000
    10  H    3.402770   4.965406   4.300168   2.482703   0.000000
    11  H    2.155643   4.300168   4.965406   4.300168   2.482703
    12  H    1.086635   2.482703   4.300168   4.965406   4.300168
                   11         12
    11  H    0.000000
    12  H    2.482703   0.000000
 Stoichiometry    C6H6
 Framework group  D6H[3C2'(HC.CH)]
 Deg. of freedom     2
 Full point group                 D6H     NOp  24
 Largest Abelian subgroup         D2H     NOp   8
 Largest concise Abelian subgroup D2      NOp   4
                         Standard orientation:                         
 ---------------------------------------------------------------------
 Center     Atomic      Atomic             Coordinates (Angstroms)
 Number     Number       Type             X           Y           Z
 ---------------------------------------------------------------------
      1          6           0        0.000000    1.396069    0.000000
      2          6           0        1.209031    0.698034    0.000000
      3          6           0        1.209031   -0.698034    0.000000
      4          6           0        0.000000   -1.396069    0.000000
      5          6           0       -1.209031   -0.698034    0.000000
      6          6           0       -1.209031    0.698034    0.000000
      7          1           0        0.000000    2.482703    0.000000
      8          1           0        2.150084    1.241352    0.000000
      9          1           0        2.150084   -1.241352    0.000000
     10          1           0        0.000000   -2.482703    0.000000
     11          1           0       -2.150084   -1.241352    0.000000
     12          1           0       -2.150084    1.241352    0.000000
 ---------------------------------------------------------------------
 Rotational constants (GHZ):           5.6911788           5.6911788           2.8455894
 Standard basis: 6-31G(d) (6D, 7F)
 There are    23 symmetry adapted cartesian basis functions of AG  symmetry.
 There are    16 symmetry adapted cartesian basis functions of B1G symmetry.
 There are     5 symmetry adapted cartesian basis functions of B2G symmetry.
 There are     7 symmetry adapted cartesian basis functions of B3G symmetry.
 There are     5 symmetry adapted cartesian basis functions of AU  symmetry.
 There are     7 symmetry adapted cartesian basis functions of B1U symmetry.
 There are    23 symmetry adapted cartesian basis functions of B2U symmetry.
 There are    16 symmetry adapted cartesian basis functions of B3U symmetry.
 There are    23 symmetry adapted basis functions of AG  symmetry.
 There are    16 symmetry adapted basis functions of B1G symmetry.
 There are     5 symmetry adapted basis functions of B2G symmetry.
 There are     7 symmetry adapted basis functions of B3G symmetry.
 There are     5 symmetry adapted basis functions of AU  symmetry.
 There are     7 symmetry adapted basis functions of B1U symmetry.
 There are    23 symmetry adapted basis functions of B2U symmetry.
 There are    16 symmetry adapted basis functions of B3U symmetry.
   102 basis functions,   192 primitive gaussians,   102 cartesian basis functions
    21 alpha electrons       21 beta electrons
       nuclear repulsion energy       203.2650180440 Hartrees.
 NAtoms=   12 NActive=   12 NUniq=    2 SFac= 4.00D+00 NAtFMM=   60 NAOKFM=F Big=F
 Integral buffers will be    131072 words long.
 Raffenetti 2 integral format.
 Two-electron integral symmetry is turned on.
 Nuclear repulsion after empirical dispersion term =      203.2461130801 Hartrees.
 One-electron integrals computed using PRISM.
 NBasis=   102 RedAO= T EigKep=  5.19D-04  NBF=    23    16     5     7     5     7    23    16
 NBsUse=   102 1.00D-06 EigRej= -1.00D+00 NBFU=    23    16     5     7     5     7    23    16
 Initial guess from the checkpoint file:  "C:\Users\zz\Desktop\test.chk"
 B after Tr=     0.000000    0.000000    0.000000
         Rot=    1.000000    0.000000    0.000000    0.000000 Ang=   0.00 deg.
 Initial guess orbital symmetries:
       Occupied  (A1G) (E1U) (E1U) (E2G) (E2G) (B1U) (A1G) (E1U)
                 (E1U) (E2G) (E2G) (A1G) (B1U) (B2U) (E1U) (E1U)
                 (A2U) (E2G) (E2G) (E1G) (E1G)
       Virtual   (E2U) (E2U) (A1G) (E1U) (E1U) (B2G) (E2G) (E2G)
                 (B1U) (E2G) (E2G) (E1U) (E1U) (B2U) (A2U) (B1U)
                 (A1G) (A2G) (A1G) (E1G) (E1G) (E2G) (E2G) (E1U)
                 (E1U) (E2U) (E2U) (B2G) (E2G) (E2G) (B1U) (E1U)
                 (E1U) (E1U) (E1U) (A1G) (A2G) (E2G) (E2G) (E1U)
                 (E1U) (B1U) (B1G) (A2U) (E2G) (E2G) (E2U) (E2U)
                 (E1G) (E1G) (A1G) (B2U) (A1G) (B1U) (E1U) (E1U)
                 (E2G) (E2G) (E2U) (E2U) (E1U) (E1U) (E1G) (E1G)
                 (B2G) (E2G) (E2G) (A1U) (E2G) (E2G) (E1U) (E1U)
                 (B1U) (A2G) (B1U) (A1G) (E1U) (E1U) (E2G) (E2G)
                 (B1U)
 Keep R1 ints in memory in symmetry-blocked form, NReq=15690931.
 Requested convergence on RMS density matrix=1.00D-08 within 128 cycles.
 Requested convergence on MAX density matrix=1.00D-06.
 Requested convergence on             energy=1.00D-06.
 No special actions if energy rises.
 SCF Done:  E(RB3LYP) =  -232.267563847     A.U. after    5 cycles
            NFock=  5  Conv=0.66D-08     -V/T= 2.0101
 Calling FoFJK, ICntrl=      2127 FMM=F ISym2X=1 I1Cent= 0 IOpClX= 0 NMat=1 NMatS=1 NMatT=0.
 ***** Axes restored to original set *****
 -------------------------------------------------------------------
 Center     Atomic                   Forces (Hartrees/Bohr)
 Number     Number              X              Y              Z
 -------------------------------------------------------------------
      1        6           0.000000000   -0.000023407    0.000000000
      2        6           0.000020271   -0.000011704    0.000000000
      3        6           0.000020271    0.000011704    0.000000000
      4        6           0.000000000    0.000023407    0.000000000
      5        6          -0.000020271    0.000011704    0.000000000
      6        6          -0.000020271   -0.000011704    0.000000000
      7        1           0.000000000   -0.000001996    0.000000000
      8        1           0.000001728   -0.000000998    0.000000000
      9        1           0.000001728    0.000000998    0.000000000
     10        1           0.000000000    0.000001996    0.000000000
     11        1          -0.000001728    0.000000998    0.000000000
     12        1          -0.000001728   -0.000000998    0.000000000
 -------------------------------------------------------------------
 Cartesian Forces:  Max     0.000023407 RMS     0.000009591

 GradGradGradGradGradGradGradGradGradGradGradGradGradGradGradGradGradGrad
 Berny optimization.
 Using GEDIIS/GDIIS optimizer.
 FormGI is forming the generalized inverse of G from B-inverse, IUseBI=4.
 Internal  Forces:  Max     0.000025403 RMS     0.000008494
 Search for a local minimum.
 Step number   3 out of a maximum of   64
 All quantities printed in internal units (Hartrees-Bohrs-Radians)
 Mixed Optimization -- En-DIIS/RFO-DIIS
 Swapping is turned off.
 Update second derivatives using D2CorX and points    1    2    3
 DE= -6.74D-07 DEPred=-7.25D-07 R= 9.30D-01
 Trust test= 9.30D-01 RLast= 1.89D-03 DXMaxT set to 3.00D-01
 ITU=  0  1  0
     Eigenvalues ---    0.02155   0.02155   0.02155   0.02155   0.02155
     Eigenvalues ---    0.02155   0.02155   0.02155   0.02155   0.16000
     Eigenvalues ---    0.16000   0.16000   0.16000   0.16000   0.16000
     Eigenvalues ---    0.22000   0.22000   0.22000   0.33725   0.33725
     Eigenvalues ---    0.33725   0.33725   0.33725   0.34802   0.42124
     Eigenvalues ---    0.42124   0.46461   0.46461   0.46461   0.49893
 En-DIIS/RFO-DIIS IScMMF=       -3 using points:     3    2
 RFO step:  Lambda= 0.00000000D+00.
 DidBck=F Rises=F RFO-DIIS coefs:    0.95332    0.04668
 Iteration  1 RMS(Cart)=  0.00002462 RMS(Int)=  0.00000000
 Iteration  2 RMS(Cart)=  0.00000000 RMS(Int)=  0.00000000
 ClnCor:  largest displacement from symmetrization is 8.05D-13 for atom     3.
 Variable       Old X    -DE/DX   Delta X   Delta X   Delta X     New X
                                 (Linear)    (Quad)   (Total)
    R1        2.63819  -0.00003  -0.00002  -0.00003  -0.00005   2.63814
    R2        2.63819  -0.00003  -0.00002  -0.00003  -0.00005   2.63814
    R3        2.05344   0.00000  -0.00003   0.00003   0.00000   2.05344
    R4        2.63819  -0.00003  -0.00002  -0.00003  -0.00005   2.63814
    R5        2.05344   0.00000  -0.00003   0.00003   0.00000   2.05344
    R6        2.63819  -0.00003  -0.00002  -0.00003  -0.00005   2.63814
    R7        2.05344   0.00000  -0.00003   0.00003   0.00000   2.05344
    R8        2.63819  -0.00003  -0.00002  -0.00003  -0.00005   2.63814
    R9        2.05344   0.00000  -0.00003   0.00003   0.00000   2.05344
   R10        2.63819  -0.00003  -0.00002  -0.00003  -0.00005   2.63814
   R11        2.05344   0.00000  -0.00003   0.00003   0.00000   2.05344
   R12        2.05344   0.00000  -0.00003   0.00003   0.00000   2.05344
    A1        2.09440   0.00000   0.00000   0.00000   0.00000   2.09440
    A2        2.09440   0.00000   0.00000   0.00000   0.00000   2.09440
    A3        2.09440   0.00000   0.00000   0.00000   0.00000   2.09440
    A4        2.09440   0.00000   0.00000   0.00000   0.00000   2.09440
    A5        2.09440   0.00000   0.00000   0.00000   0.00000   2.09440
    A6        2.09440   0.00000   0.00000   0.00000   0.00000   2.09440
    A7        2.09440   0.00000   0.00000   0.00000   0.00000   2.09440
    A8        2.09440   0.00000   0.00000   0.00000   0.00000   2.09440
    A9        2.09440   0.00000   0.00000   0.00000   0.00000   2.09440
   A10        2.09440   0.00000   0.00000   0.00000   0.00000   2.09440
   A11        2.09440   0.00000   0.00000   0.00000   0.00000   2.09440
   A12        2.09440   0.00000   0.00000   0.00000   0.00000   2.09440
   A13        2.09440   0.00000   0.00000   0.00000   0.00000   2.09440
   A14        2.09440   0.00000   0.00000   0.00000   0.00000   2.09440
   A15        2.09440   0.00000   0.00000   0.00000   0.00000   2.09440
   A16        2.09440   0.00000   0.00000   0.00000   0.00000   2.09440
   A17        2.09440   0.00000   0.00000   0.00000   0.00000   2.09440
   A18        2.09440   0.00000   0.00000   0.00000   0.00000   2.09440
    D1        0.00000   0.00000   0.00000   0.00000   0.00000   0.00000
    D2        3.14159   0.00000   0.00000   0.00000   0.00000   3.14159
    D3        3.14159   0.00000   0.00000   0.00000   0.00000   3.14159
    D4        0.00000   0.00000   0.00000   0.00000   0.00000   0.00000
    D5        0.00000   0.00000   0.00000   0.00000   0.00000   0.00000
    D6        3.14159   0.00000   0.00000   0.00000   0.00000   3.14159
    D7        3.14159   0.00000   0.00000   0.00000   0.00000   3.14159
    D8        0.00000   0.00000   0.00000   0.00000   0.00000   0.00000
    D9        0.00000   0.00000   0.00000   0.00000   0.00000   0.00000
   D10        3.14159   0.00000   0.00000   0.00000   0.00000   3.14159
   D11        3.14159   0.00000   0.00000   0.00000   0.00000   3.14159
   D12        0.00000   0.00000   0.00000   0.00000   0.00000   0.00000
   D13        0.00000   0.00000   0.00000   0.00000   0.00000   0.00000
   D14        3.14159   0.00000   0.00000   0.00000   0.00000   3.14159
   D15        3.14159   0.00000   0.00000   0.00000   0.00000   3.14159
   D16        0.00000   0.00000   0.00000   0.00000   0.00000   0.00000
   D17        0.00000   0.00000   0.00000   0.00000   0.00000   0.00000
   D18        3.14159   0.00000   0.00000   0.00000   0.00000   3.14159
   D19        3.14159   0.00000   0.00000   0.00000   0.00000   3.14159
   D20        0.00000   0.00000   0.00000   0.00000   0.00000   0.00000
   D21        0.00000   0.00000   0.00000   0.00000   0.00000   0.00000
   D22        3.14159   0.00000   0.00000   0.00000   0.00000   3.14159
   D23        3.14159   0.00000   0.00000   0.00000   0.00000   3.14159
   D24        0.00000   0.00000   0.00000   0.00000   0.00000   0.00000
         Item               Value     Threshold  Converged?
 Maximum Force            0.000025     0.000015     NO 
 RMS     Force            0.000008     0.000010     YES
 Maximum Displacement     0.000053     0.000060     YES
 RMS     Displacement     0.000025     0.000040     YES
 Predicted change in Energy=-3.920877D-09
 GradGradGradGradGradGradGradGradGradGradGradGradGradGradGradGradGradGrad

                          Input orientation:                          
 ---------------------------------------------------------------------
 Center     Atomic      Atomic             Coordinates (Angstroms)
 Number     Number       Type             X           Y           Z
 ---------------------------------------------------------------------
      1          6           0        0.000000    1.396041    0.000000
      2          6           0       -1.209007    0.698021    0.000000
      3          6           0       -1.209007   -0.698021    0.000000
      4          6           0        0.000000   -1.396041    0.000000
      5          6           0        1.209007   -0.698021    0.000000
      6          6           0        1.209007    0.698021    0.000000
      7          1           0        0.000000    2.482675    0.000000
      8          1           0       -2.150060    1.241338    0.000000
      9          1           0       -2.150060   -1.241338    0.000000
     10          1           0        0.000000   -2.482675    0.000000
     11          1           0        2.150060   -1.241338    0.000000
     12          1           0        2.150060    1.241338    0.000000
 ---------------------------------------------------------------------
                    Distance matrix (angstroms):
                    1          2          3          4          5
     1  C    0.000000
     2  C    1.396041   0.000000
     3  C    2.418015   1.396041   0.000000
     4  C    2.792083   2.418015   1.396041   0.000000
     5  C    2.418015   2.792083   2.418015   1.396041   0.000000
     6  C    1.396041   2.418015   2.792083   2.418015   1.396041
     7  H    1.086634   2.155618   3.402723   3.878716   3.402723
     8  H    2.155618   1.086634   2.155618   3.402723   3.878716
     9  H    3.402723   2.155618   1.086634   2.155618   3.402723
    10  H    3.878716   3.402723   2.155618   1.086634   2.155618
    11  H    3.402723   3.878716   3.402723   2.155618   1.086634
    12  H    2.155618   3.402723   3.878716   3.402723   2.155618
                    6          7          8          9         10
     6  C    0.000000
     7  H    2.155618   0.000000
     8  H    3.402723   2.482675   0.000000
     9  H    3.878716   4.300119   2.482675   0.000000
    10  H    3.402723   4.965350   4.300119   2.482675   0.000000
    11  H    2.155618   4.300119   4.965350   4.300119   2.482675
    12  H    1.086634   2.482675   4.300119   4.965350   4.300119
                   11         12
    11  H    0.000000
    12  H    2.482675   0.000000
 Stoichiometry    C6H6
 Framework group  D6H[3C2'(HC.CH)]
 Deg. of freedom     2
 Full point group                 D6H     NOp  24
 Largest Abelian subgroup         D2H     NOp   8
 Largest concise Abelian subgroup D2      NOp   4
                         Standard orientation:                         
 ---------------------------------------------------------------------
 Center     Atomic      Atomic             Coordinates (Angstroms)
 Number     Number       Type             X           Y           Z
 ---------------------------------------------------------------------
      1          6           0        0.000000    1.396041    0.000000
      2          6           0        1.209007    0.698021    0.000000
      3          6           0        1.209007   -0.698021    0.000000
      4          6           0        0.000000   -1.396041    0.000000
      5          6           0       -1.209007   -0.698021    0.000000
      6          6           0       -1.209007    0.698021    0.000000
      7          1           0        0.000000    2.482675    0.000000
      8          1           0        2.150060    1.241338    0.000000
      9          1           0        2.150060   -1.241338    0.000000
     10          1           0        0.000000   -2.482675    0.000000
     11          1           0       -2.150060   -1.241338    0.000000
     12          1           0       -2.150060    1.241338    0.000000
 ---------------------------------------------------------------------
 Rotational constants (GHZ):           5.6913808           5.6913808           2.8456904
 Standard basis: 6-31G(d) (6D, 7F)
 There are    23 symmetry adapted cartesian basis functions of AG  symmetry.
 There are    16 symmetry adapted cartesian basis functions of B1G symmetry.
 There are     5 symmetry adapted cartesian basis functions of B2G symmetry.
 There are     7 symmetry adapted cartesian basis functions of B3G symmetry.
 There are     5 symmetry adapted cartesian basis functions of AU  symmetry.
 There are     7 symmetry adapted cartesian basis functions of B1U symmetry.
 There are    23 symmetry adapted cartesian basis functions of B2U symmetry.
 There are    16 symmetry adapted cartesian basis functions of B3U symmetry.
 There are    23 symmetry adapted basis functions of AG  symmetry.
 There are    16 symmetry adapted basis functions of B1G symmetry.
 There are     5 symmetry adapted basis functions of B2G symmetry.
 There are     7 symmetry adapted basis functions of B3G symmetry.
 There are     5 symmetry adapted basis functions of AU  symmetry.
 There are     7 symmetry adapted basis functions of B1U symmetry.
 There are    23 symmetry adapted basis functions of B2U symmetry.
 There are    16 symmetry adapted basis functions of B3U symmetry.
   102 basis functions,   192 primitive gaussians,   102 cartesian basis functions
    21 alpha electrons       21 beta electrons
       nuclear repulsion energy       203.2684023453 Hartrees.
 NAtoms=   12 NActive=   12 NUniq=    2 SFac= 4.00D+00 NAtFMM=   60 NAOKFM=F Big=F
 Integral buffers will be    131072 words long.
 Raffenetti 2 integral format.
 Two-electron integral symmetry is turned on.
 Nuclear repulsion after empirical dispersion term =      203.2494972053 Hartrees.
 One-electron integrals computed using PRISM.
 NBasis=   102 RedAO= T EigKep=  5.19D-04  NBF=    23    16     5     7     5     7    23    16
 NBsUse=   102 1.00D-06 EigRej= -1.00D+00 NBFU=    23    16     5     7     5     7    23    16
 Initial guess from the checkpoint file:  "C:\Users\zz\Desktop\test.chk"
 B after Tr=     0.000000    0.000000    0.000000
         Rot=    1.000000    0.000000    0.000000    0.000000 Ang=   0.00 deg.
 Initial guess orbital symmetries:
       Occupied  (A1G) (E1U) (E1U) (E2G) (E2G) (B1U) (A1G) (E1U)
                 (E1U) (E2G) (E2G) (A1G) (B1U) (B2U) (E1U) (E1U)
                 (A2U) (E2G) (E2G) (E1G) (E1G)
       Virtual   (E2U) (E2U) (A1G) (E1U) (E1U) (B2G) (E2G) (E2G)
                 (B1U) (E2G) (E2G) (E1U) (E1U) (B2U) (A2U) (B1U)
                 (A1G) (A2G) (A1G) (E1G) (E1G) (E2G) (E2G) (E1U)
                 (E1U) (E2U) (E2U) (B2G) (E2G) (E2G) (B1U) (E1U)
                 (E1U) (E1U) (E1U) (A1G) (A2G) (E2G) (E2G) (E1U)
                 (E1U) (B1U) (B1G) (A2U) (E2G) (E2G) (E2U) (E2U)
                 (E1G) (E1G) (A1G) (B2U) (A1G) (B1U) (E1U) (E1U)
                 (E2G) (E2G) (E2U) (E2U) (E1U) (E1U) (E1G) (E1G)
                 (B2G) (E2G) (E2G) (A1U) (E2G) (E2G) (E1U) (E1U)
                 (B1U) (A2G) (B1U) (A1G) (E1U) (E1U) (E2G) (E2G)
                 (B1U)
 Keep R1 ints in memory in symmetry-blocked form, NReq=15690931.
 Requested convergence on RMS density matrix=1.00D-08 within 128 cycles.
 Requested convergence on MAX density matrix=1.00D-06.
 Requested convergence on             energy=1.00D-06.
 No special actions if energy rises.
 SCF Done:  E(RB3LYP) =  -232.267563851     A.U. after    4 cycles
            NFock=  4  Conv=0.47D-08     -V/T= 2.0101
 Calling FoFJK, ICntrl=      2127 FMM=F ISym2X=1 I1Cent= 0 IOpClX= 0 NMat=1 NMatS=1 NMatT=0.
 ***** Axes restored to original set *****
 -------------------------------------------------------------------
 Center     Atomic                   Forces (Hartrees/Bohr)
 Number     Number              X              Y              Z
 -------------------------------------------------------------------
      1        6           0.000000000    0.000002013    0.000000000
      2        6          -0.000001743    0.000001006    0.000000000
      3        6          -0.000001743   -0.000001006    0.000000000
      4        6           0.000000000   -0.000002013    0.000000000
      5        6           0.000001743   -0.000001006    0.000000000
      6        6           0.000001743    0.000001006    0.000000000
      7        1           0.000000000   -0.000000765    0.000000000
      8        1           0.000000662   -0.000000382    0.000000000
      9        1           0.000000662    0.000000382    0.000000000
     10        1           0.000000000    0.000000765    0.000000000
     11        1          -0.000000662    0.000000382    0.000000000
     12        1          -0.000000662   -0.000000382    0.000000000
 -------------------------------------------------------------------
 Cartesian Forces:  Max     0.000002013 RMS     0.000000879

 GradGradGradGradGradGradGradGradGradGradGradGradGradGradGradGradGradGrad
 Berny optimization.
 Using GEDIIS/GDIIS optimizer.
 FormGI is forming the generalized inverse of G from B-inverse, IUseBI=4.
 Internal  Forces:  Max     0.000001248 RMS     0.000000488
 Search for a local minimum.
 Step number   4 out of a maximum of   64
 All quantities printed in internal units (Hartrees-Bohrs-Radians)
 Mixed Optimization -- En-DIIS/RFO-DIIS
 Swapping is turned off.
 Update second derivatives using D2CorX and points    1    2    3    4
 DE= -3.74D-09 DEPred=-3.92D-09 R= 9.53D-01
 Trust test= 9.53D-01 RLast= 1.26D-04 DXMaxT set to 3.00D-01
 ITU=  0  0  1  0
     Eigenvalues ---    0.02155   0.02155   0.02155   0.02155   0.02155
     Eigenvalues ---    0.02155   0.02155   0.02155   0.02155   0.16000
     Eigenvalues ---    0.16000   0.16000   0.16000   0.16000   0.16000
     Eigenvalues ---    0.22000   0.22000   0.22000   0.33725   0.33725
     Eigenvalues ---    0.33725   0.33725   0.33725   0.35644   0.42124
     Eigenvalues ---    0.42124   0.46461   0.46461   0.46461   0.51985
 En-DIIS/RFO-DIIS IScMMF=       -3 using points:     4    3    2
 RFO step:  Lambda= 0.00000000D+00.
 DidBck=F Rises=F RFO-DIIS coefs:    0.92446    0.07201    0.00353
 Iteration  1 RMS(Cart)=  0.00000082 RMS(Int)=  0.00000000
 ClnCor:  largest displacement from symmetrization is 4.41D-13 for atom     4.
 Variable       Old X    -DE/DX   Delta X   Delta X   Delta X     New X
                                 (Linear)    (Quad)   (Total)
    R1        2.63814   0.00000   0.00000   0.00000   0.00000   2.63814
    R2        2.63814   0.00000   0.00000   0.00000   0.00000   2.63814
    R3        2.05344   0.00000   0.00000   0.00000   0.00000   2.05344
    R4        2.63814   0.00000   0.00000   0.00000   0.00000   2.63814
    R5        2.05344   0.00000   0.00000   0.00000   0.00000   2.05344
    R6        2.63814   0.00000   0.00000   0.00000   0.00000   2.63814
    R7        2.05344   0.00000   0.00000   0.00000   0.00000   2.05344
    R8        2.63814   0.00000   0.00000   0.00000   0.00000   2.63814
    R9        2.05344   0.00000   0.00000   0.00000   0.00000   2.05344
   R10        2.63814   0.00000   0.00000   0.00000   0.00000   2.63814
   R11        2.05344   0.00000   0.00000   0.00000   0.00000   2.05344
   R12        2.05344   0.00000   0.00000   0.00000   0.00000   2.05344
    A1        2.09440   0.00000   0.00000   0.00000   0.00000   2.09440
    A2        2.09440   0.00000   0.00000   0.00000   0.00000   2.09440
    A3        2.09440   0.00000   0.00000   0.00000   0.00000   2.09440
    A4        2.09440   0.00000   0.00000   0.00000   0.00000   2.09440
    A5        2.09440   0.00000   0.00000   0.00000   0.00000   2.09440
    A6        2.09440   0.00000   0.00000   0.00000   0.00000   2.09440
    A7        2.09440   0.00000   0.00000   0.00000   0.00000   2.09440
    A8        2.09440   0.00000   0.00000   0.00000   0.00000   2.09440
    A9        2.09440   0.00000   0.00000   0.00000   0.00000   2.09440
   A10        2.09440   0.00000   0.00000   0.00000   0.00000   2.09440
   A11        2.09440   0.00000   0.00000   0.00000   0.00000   2.09440
   A12        2.09440   0.00000   0.00000   0.00000   0.00000   2.09440
   A13        2.09440   0.00000   0.00000   0.00000   0.00000   2.09440
   A14        2.09440   0.00000   0.00000   0.00000   0.00000   2.09440
   A15        2.09440   0.00000   0.00000   0.00000   0.00000   2.09440
   A16        2.09440   0.00000   0.00000   0.00000   0.00000   2.09440
   A17        2.09440   0.00000   0.00000   0.00000   0.00000   2.09440
   A18        2.09440   0.00000   0.00000   0.00000   0.00000   2.09440
    D1        0.00000   0.00000   0.00000   0.00000   0.00000   0.00000
    D2        3.14159   0.00000   0.00000   0.00000   0.00000   3.14159
    D3        3.14159   0.00000   0.00000   0.00000   0.00000   3.14159
    D4        0.00000   0.00000   0.00000   0.00000   0.00000   0.00000
    D5        0.00000   0.00000   0.00000   0.00000   0.00000   0.00000
    D6        3.14159   0.00000   0.00000   0.00000   0.00000   3.14159
    D7        3.14159   0.00000   0.00000   0.00000   0.00000   3.14159
    D8        0.00000   0.00000   0.00000   0.00000   0.00000   0.00000
    D9        0.00000   0.00000   0.00000   0.00000   0.00000   0.00000
   D10        3.14159   0.00000   0.00000   0.00000   0.00000   3.14159
   D11        3.14159   0.00000   0.00000   0.00000   0.00000   3.14159
   D12        0.00000   0.00000   0.00000   0.00000   0.00000   0.00000
   D13        0.00000   0.00000   0.00000   0.00000   0.00000   0.00000
   D14        3.14159   0.00000   0.00000   0.00000   0.00000   3.14159
   D15        3.14159   0.00000   0.00000   0.00000   0.00000   3.14159
   D16        0.00000   0.00000   0.00000   0.00000   0.00000   0.00000
   D17        0.00000   0.00000   0.00000   0.00000   0.00000   0.00000
   D18        3.14159   0.00000   0.00000   0.00000   0.00000   3.14159
   D19        3.14159   0.00000   0.00000   0.00000   0.00000   3.14159
   D20        0.00000   0.00000   0.00000   0.00000   0.00000   0.00000
   D21        0.00000   0.00000   0.00000   0.00000   0.00000   0.00000
   D22        3.14159   0.00000   0.00000   0.00000   0.00000   3.14159
   D23        3.14159   0.00000   0.00000   0.00000   0.00000   3.14159
   D24        0.00000   0.00000   0.00000   0.00000   0.00000   0.00000
         Item               Value     Threshold  Converged?
 Maximum Force            0.000001     0.000015     YES
 RMS     Force            0.000000     0.000010     YES
 Maximum Displacement     0.000002     0.000060     YES
 RMS     Displacement     0.000001     0.000040     YES
 Predicted change in Energy=-1.426989D-11
 Optimization completed.
    -- Stationary point found.
                           ----------------------------
                           !   Optimized Parameters   !
                           ! (Angstroms and Degrees)  !
 --------------------------                            --------------------------
 ! Name  Definition              Value          Derivative Info.                !
 --------------------------------------------------------------------------------
 ! R1    R(1,2)                  1.396          -DE/DX =    0.0                 !
 ! R2    R(1,6)                  1.396          -DE/DX =    0.0                 !
 ! R3    R(1,7)                  1.0866         -DE/DX =    0.0                 !
 ! R4    R(2,3)                  1.396          -DE/DX =    0.0                 !
 ! R5    R(2,8)                  1.0866         -DE/DX =    0.0                 !
 ! R6    R(3,4)                  1.396          -DE/DX =    0.0                 !
 ! R7    R(3,9)                  1.0866         -DE/DX =    0.0                 !
 ! R8    R(4,5)                  1.396          -DE/DX =    0.0                 !
 ! R9    R(4,10)                 1.0866         -DE/DX =    0.0                 !
 ! R10   R(5,6)                  1.396          -DE/DX =    0.0                 !
 ! R11   R(5,11)                 1.0866         -DE/DX =    0.0                 !
 ! R12   R(6,12)                 1.0866         -DE/DX =    0.0                 !
 ! A1    A(2,1,6)              120.0            -DE/DX =    0.0                 !
 ! A2    A(2,1,7)              120.0            -DE/DX =    0.0                 !
 ! A3    A(6,1,7)              120.0            -DE/DX =    0.0                 !
 ! A4    A(1,2,3)              120.0            -DE/DX =    0.0                 !
 ! A5    A(1,2,8)              120.0            -DE/DX =    0.0                 !
 ! A6    A(3,2,8)              120.0            -DE/DX =    0.0                 !
 ! A7    A(2,3,4)              120.0            -DE/DX =    0.0                 !
 ! A8    A(2,3,9)              120.0            -DE/DX =    0.0                 !
 ! A9    A(4,3,9)              120.0            -DE/DX =    0.0                 !
 ! A10   A(3,4,5)              120.0            -DE/DX =    0.0                 !
 ! A11   A(3,4,10)             120.0            -DE/DX =    0.0                 !
 ! A12   A(5,4,10)             120.0            -DE/DX =    0.0                 !
 ! A13   A(4,5,6)              120.0            -DE/DX =    0.0                 !
 ! A14   A(4,5,11)             120.0            -DE/DX =    0.0                 !
 ! A15   A(6,5,11)             120.0            -DE/DX =    0.0                 !
 ! A16   A(1,6,5)              120.0            -DE/DX =    0.0                 !
 ! A17   A(1,6,12)             120.0            -DE/DX =    0.0                 !
 ! A18   A(5,6,12)             120.0            -DE/DX =    0.0                 !
 ! D1    D(6,1,2,3)              0.0            -DE/DX =    0.0                 !
 ! D2    D(6,1,2,8)            180.0            -DE/DX =    0.0                 !
 ! D3    D(7,1,2,3)            180.0            -DE/DX =    0.0                 !
 ! D4    D(7,1,2,8)              0.0            -DE/DX =    0.0                 !
 ! D5    D(2,1,6,5)              0.0            -DE/DX =    0.0                 !
 ! D6    D(2,1,6,12)           180.0            -DE/DX =    0.0                 !
 ! D7    D(7,1,6,5)            180.0            -DE/DX =    0.0                 !
 ! D8    D(7,1,6,12)             0.0            -DE/DX =    0.0                 !
 ! D9    D(1,2,3,4)              0.0            -DE/DX =    0.0                 !
 ! D10   D(1,2,3,9)            180.0            -DE/DX =    0.0                 !
 ! D11   D(8,2,3,4)            180.0            -DE/DX =    0.0                 !
 ! D12   D(8,2,3,9)              0.0            -DE/DX =    0.0                 !
 ! D13   D(2,3,4,5)              0.0            -DE/DX =    0.0                 !
 ! D14   D(2,3,4,10)           180.0            -DE/DX =    0.0                 !
 ! D15   D(9,3,4,5)            180.0            -DE/DX =    0.0                 !
 ! D16   D(9,3,4,10)             0.0            -DE/DX =    0.0                 !
 ! D17   D(3,4,5,6)              0.0            -DE/DX =    0.0                 !
 ! D18   D(3,4,5,11)           180.0            -DE/DX =    0.0                 !
 ! D19   D(10,4,5,6)           180.0            -DE/DX =    0.0                 !
 ! D20   D(10,4,5,11)            0.0            -DE/DX =    0.0                 !
 ! D21   D(4,5,6,1)              0.0            -DE/DX =    0.0                 !
 ! D22   D(4,5,6,12)           180.0            -DE/DX =    0.0                 !
 ! D23   D(11,5,6,1)           180.0            -DE/DX =    0.0                 !
 ! D24   D(11,5,6,12)            0.0            -DE/DX =    0.0                 !
 --------------------------------------------------------------------------------
 GradGradGradGradGradGradGradGradGradGradGradGradGradGradGradGradGradGrad

                          Input orientation:                          
 ---------------------------------------------------------------------
 Center     Atomic      Atomic             Coordinates (Angstroms)
 Number     Number       Type             X           Y           Z
 ---------------------------------------------------------------------
      1          6           0        0.000000    1.396041    0.000000
      2          6           0       -1.209007    0.698021    0.000000
      3          6           0       -1.209007   -0.698021    0.000000
      4          6           0        0.000000   -1.396041    0.000000
      5          6           0        1.209007   -0.698021    0.000000
      6          6           0        1.209007    0.698021    0.000000
      7          1           0        0.000000    2.482675    0.000000
      8          1           0       -2.150060    1.241338    0.000000
      9          1           0       -2.150060   -1.241338    0.000000
     10          1           0        0.000000   -2.482675    0.000000
     11          1           0        2.150060   -1.241338    0.000000
     12          1           0        2.150060    1.241338    0.000000
 ---------------------------------------------------------------------
                    Distance matrix (angstroms):
                    1          2          3          4          5
     1  C    0.000000
     2  C    1.396041   0.000000
     3  C    2.418015   1.396041   0.000000
     4  C    2.792083   2.418015   1.396041   0.000000
     5  C    2.418015   2.792083   2.418015   1.396041   0.000000
     6  C    1.396041   2.418015   2.792083   2.418015   1.396041
     7  H    1.086634   2.155618   3.402723   3.878716   3.402723
     8  H    2.155618   1.086634   2.155618   3.402723   3.878716
     9  H    3.402723   2.155618   1.086634   2.155618   3.402723
    10  H    3.878716   3.402723   2.155618   1.086634   2.155618
    11  H    3.402723   3.878716   3.402723   2.155618   1.086634
    12  H    2.155618   3.402723   3.878716   3.402723   2.155618
                    6          7          8          9         10
     6  C    0.000000
     7  H    2.155618   0.000000
     8  H    3.402723   2.482675   0.000000
     9  H    3.878716   4.300119   2.482675   0.000000
    10  H    3.402723   4.965350   4.300119   2.482675   0.000000
    11  H    2.155618   4.300119   4.965350   4.300119   2.482675
    12  H    1.086634   2.482675   4.300119   4.965350   4.300119
                   11         12
    11  H    0.000000
    12  H    2.482675   0.000000
 Stoichiometry    C6H6
 Framework group  D6H[3C2'(HC.CH)]
 Deg. of freedom     2
 Full point group                 D6H     NOp  24
 Largest Abelian subgroup         D2H     NOp   8
 Largest concise Abelian subgroup D2      NOp   4
                         Standard orientation:                         
 ---------------------------------------------------------------------
 Center     Atomic      Atomic             Coordinates (Angstroms)
 Number     Number       Type             X           Y           Z
 ---------------------------------------------------------------------
      1          6           0        0.000000    1.396041    0.000000
      2          6           0        1.209007    0.698021    0.000000
      3          6           0        1.209007   -0.698021    0.000000
      4          6           0        0.000000   -1.396041    0.000000
      5          6           0       -1.209007   -0.698021    0.000000
      6          6           0       -1.209007    0.698021    0.000000
      7          1           0        0.000000    2.482675    0.000000
      8          1           0        2.150060    1.241338    0.000000
      9          1           0        2.150060   -1.241338    0.000000
     10          1           0        0.000000   -2.482675    0.000000
     11          1           0       -2.150060   -1.241338    0.000000
     12          1           0       -2.150060    1.241338    0.000000
 ---------------------------------------------------------------------
 Rotational constants (GHZ):           5.6913808           5.6913808           2.8456904

 **********************************************************************

            Population analysis using the SCF Density.

 **********************************************************************

 Orbital symmetries:
       Occupied  (A1G) (E1U) (E1U) (E2G) (E2G) (B1U) (A1G) (E1U)
                 (E1U) (E2G) (E2G) (A1G) (B1U) (B2U) (E1U) (E1U)
                 (A2U) (E2G) (E2G) (E1G) (E1G)
       Virtual   (E2U) (E2U) (A1G) (E1U) (E1U) (B2G) (E2G) (E2G)
                 (B1U) (E2G) (E2G) (E1U) (E1U) (B2U) (A2U) (B1U)
                 (A1G) (A2G) (A1G) (E1G) (E1G) (E2G) (E2G) (E1U)
                 (E1U) (E2U) (E2U) (B2G) (E2G) (E2G) (B1U) (E1U)
                 (E1U) (E1U) (E1U) (A1G) (A2G) (E2G) (E2G) (E1U)
                 (E1U) (B1U) (B1G) (A2U) (E2G) (E2G) (E2U) (E2U)
                 (E1G) (E1G) (A1G) (B2U) (A1G) (B1U) (E1U) (E1U)
                 (E2G) (E2G) (E2U) (E2U) (E1U) (E1U) (E1G) (E1G)
                 (B2G) (E2G) (E2G) (A1U) (E2G) (E2G) (E1U) (E1U)
                 (B1U) (A2G) (B1U) (A1G) (E1U) (E1U) (E2G) (E2G)
                 (B1U)
 The electronic state is 1-A1G.
 Alpha  occ. eigenvalues --  -10.18754 -10.18727 -10.18727 -10.18672 -10.18672
 Alpha  occ. eigenvalues --  -10.18645  -0.84660  -0.73998  -0.73998  -0.59759
 Alpha  occ. eigenvalues --   -0.59759  -0.51874  -0.45926  -0.43825  -0.41734
 Alpha  occ. eigenvalues --   -0.41734  -0.35958  -0.34027  -0.34027  -0.24635
 Alpha  occ. eigenvalues --   -0.24635
 Alpha virt. eigenvalues --    0.00375   0.00375   0.09084   0.14478   0.14478
 Alpha virt. eigenvalues --    0.16424   0.18204   0.18204   0.19049   0.30292
 Alpha virt. eigenvalues --    0.30292   0.31945   0.31945   0.47474   0.52728
 Alpha virt. eigenvalues --    0.54973   0.55044   0.56452   0.59251   0.60198
 Alpha virt. eigenvalues --    0.60198   0.60238   0.60238   0.62692   0.62692
 Alpha virt. eigenvalues --    0.66761   0.66761   0.74499   0.84023   0.84023
 Alpha virt. eigenvalues --    0.84150   0.86509   0.86509   0.93929   0.93929
 Alpha virt. eigenvalues --    0.94085   0.95848   1.08277   1.08277   1.14278
 Alpha virt. eigenvalues --    1.14278   1.20151   1.26190   1.39603   1.43682
 Alpha virt. eigenvalues --    1.43682   1.48718   1.48718   1.51548   1.51548
 Alpha virt. eigenvalues --    1.75703   1.79037   1.85779   1.89642   1.97420
 Alpha virt. eigenvalues --    1.97420   2.06697   2.06697   2.15207   2.15207
 Alpha virt. eigenvalues --    2.15528   2.15528   2.31008   2.31008   2.32240
 Alpha virt. eigenvalues --    2.54621   2.54621   2.65806   2.70677   2.70677
 Alpha virt. eigenvalues --    2.72258   2.72258   2.76050   3.01767   3.41217
 Alpha virt. eigenvalues --    4.08596   4.11799   4.11799   4.33056   4.33056
 Alpha virt. eigenvalues --    4.66649
          Condensed to atoms (all electrons):
               1          2          3          4          5          6
     1  C    4.848461   0.551726  -0.031920  -0.041037  -0.031920   0.551726
     2  C    0.551726   4.848461   0.551726  -0.031920  -0.041037  -0.031920
     3  C   -0.031920   0.551726   4.848461   0.551726  -0.031920  -0.041037
     4  C   -0.041037  -0.031920   0.551726   4.848461   0.551726  -0.031920
     5  C   -0.031920  -0.041037  -0.031920   0.551726   4.848461   0.551726
     6  C    0.551726  -0.031920  -0.041037  -0.031920   0.551726   4.848461
     7  H    0.358945  -0.043846   0.004801   0.000582   0.004801  -0.043846
     8  H   -0.043846   0.358945  -0.043846   0.004801   0.000582   0.004801
     9  H    0.004801  -0.043846   0.358945  -0.043846   0.004801   0.000582
    10  H    0.000582   0.004801  -0.043846   0.358945  -0.043846   0.004801
    11  H    0.004801   0.000582   0.004801  -0.043846   0.358945  -0.043846
    12  H   -0.043846   0.004801   0.000582   0.004801  -0.043846   0.358945
               7          8          9         10         11         12
     1  C    0.358945  -0.043846   0.004801   0.000582   0.004801  -0.043846
     2  C   -0.043846   0.358945  -0.043846   0.004801   0.000582   0.004801
     3  C    0.004801  -0.043846   0.358945  -0.043846   0.004801   0.000582
     4  C    0.000582   0.004801  -0.043846   0.358945  -0.043846   0.004801
     5  C    0.004801   0.000582   0.004801  -0.043846   0.358945  -0.043846
     6  C   -0.043846   0.004801   0.000582   0.004801  -0.043846   0.358945
     7  H    0.602237  -0.005898  -0.000183   0.000016  -0.000183  -0.005898
     8  H   -0.005898   0.602237  -0.005898  -0.000183   0.000016  -0.000183
     9  H   -0.000183  -0.005898   0.602237  -0.005898  -0.000183   0.000016
    10  H    0.000016  -0.000183  -0.005898   0.602237  -0.005898  -0.000183
    11  H   -0.000183   0.000016  -0.000183  -0.005898   0.602237  -0.005898
    12  H   -0.005898  -0.000183   0.000016  -0.000183  -0.005898   0.602237
 Mulliken charges:
               1
     1  C   -0.128472
     2  C   -0.128472
     3  C   -0.128472
     4  C   -0.128472
     5  C   -0.128472
     6  C   -0.128472
     7  H    0.128472
     8  H    0.128472
     9  H    0.128472
    10  H    0.128472
    11  H    0.128472
    12  H    0.128472
 Sum of Mulliken charges =   0.00000
 Mulliken charges with hydrogens summed into heavy atoms:
               1
     1  C    0.000000
     2  C    0.000000
     3  C    0.000000
     4  C    0.000000
     5  C    0.000000
     6  C    0.000000
 Electronic spatial extent (au):  <R**2>=            458.0055
 Charge=              0.0000 electrons
 Dipole moment (field-independent basis, Debye):
    X=              0.0000    Y=              0.0000    Z=              0.0000  Tot=              0.0000
 Quadrupole moment (field-independent basis, Debye-Ang):
   XX=            -31.4047   YY=            -31.4047   ZZ=            -38.5910
   XY=              0.0000   XZ=              0.0000   YZ=              0.0000
 Traceless Quadrupole moment (field-independent basis, Debye-Ang):
   XX=              2.3954   YY=              2.3954   ZZ=             -4.7908
   XY=              0.0000   XZ=              0.0000   YZ=              0.0000
 Octapole moment (field-independent basis, Debye-Ang**2):
  XXX=              0.0000  YYY=              0.0000  ZZZ=              0.0000  XYY=              0.0000
  XXY=              0.0000  XXZ=              0.0000  XZZ=              0.0000  YZZ=              0.0000
  YYZ=              0.0000  XYZ=              0.0000
 Hexadecapole moment (field-independent basis, Debye-Ang**3):
 XXXX=           -269.9783 YYYY=           -269.9783 ZZZZ=            -40.0346 XXXY=              0.0000
 XXXZ=              0.0000 YYYX=              0.0000 YYYZ=              0.0000 ZZZX=              0.0000
 ZZZY=              0.0000 XXYY=            -89.9928 XXZZ=            -60.3176 YYZZ=            -60.3176
 XXYZ=              0.0000 YYXZ=              0.0000 ZZXY=              0.0000
 N-N= 2.032494972053D+02 E-N=-9.438839395940D+02  KE= 2.299376176240D+02
 Symmetry AG   KE= 7.407162443630D+01
 Symmetry B1G  KE= 3.747692518525D+01
 Symmetry B2G  KE= 2.237286411890D+00
 Symmetry B3G  KE= 2.237286411890D+00
 Symmetry AU   KE=-6.143696833981D-16
 Symmetry B1U  KE= 1.865845498952D+00
 Symmetry B2U  KE= 7.177161353638D+01
 Symmetry B3U  KE= 4.027703614334D+01
 1|1|UNPC-DESKTOP-T8NFEU5|FOpt|RB3LYP|6-31G(d)|C6H6|ZZ|09-Sep-2020|0||#
  Opt=Tight B3LYP/6-31G* EmpiricalDispersion=GD3BJ||Title Card Required
 ||0,1|C,0.0000000027,1.3960414156,0.|C,-1.2090073293,0.6980207101,0.|C
 ,-1.209007332,-0.6980207055,0.|C,-0.0000000027,-1.3960414156,0.|C,1.20
 90073293,-0.6980207101,0.|C,1.209007332,0.6980207055,0.|H,0.0000000048
 ,2.4826750134,0.|H,-2.1500596286,1.2413375109,0.|H,-2.1500596334,-1.24
 13375026,0.|H,-0.0000000048,-2.4826750134,0.|H,2.1500596286,-1.2413375
 109,0.|H,2.1500596334,1.2413375026,0.||Version=EM64W-G16RevB.01|State=
 1-A1G|HF=-232.2675639|RMSD=4.749e-009|RMSF=8.791e-007|Dipole=0.,0.,0.|
 Quadrupole=1.7809317,1.7809317,-3.5618634,0.,0.,0.|PG=D06H [3C2'(H1C1.
 C1H1)]||@


 ADVERTISING--  HE WHO HAS SOMETHING TO SELL AND GOES AND WHISPERS
                IN A WELL, IS NOT SO APT TO GET THE DOLLARS AS HE
                WHO CLIMBS A TREE AND HOLLERS.

                   -- FROM THE BACK OF A SUGAR PACKET
 Job cpu time:       0 days  0 hours  0 minutes 22.0 seconds.
 Elapsed time:       0 days  0 hours  0 minutes 14.8 seconds.
 File lengths (MBytes):  RWF=     10 Int=      0 D2E=      0 Chk=      2 Scr=      1
 Normal termination of Gaussian 16 at Wed Sep 09 22:48:59 2020.
